----- GAMESS execution script 'rungms' -----
This job is running on host chemcompute-node-0.novalocal
under operating system Linux at Sat Nov 13 04:41:45 UTC 2021
SLURM has assigned the following compute nodes to this run:
chemcompute-node-0
Available scratch disk space (Kbyte units) at beginning of the job is
Filesystem     1K-blocks     Used Available Use% Mounted on
/dev/sda1       62903276 17520480  45382796  28% /
GAMESS temporary binary files will be written to /scratch/305711
GAMESS supplementary output files will be written to /data/slurm/341587
Copying input file 341587.inp to your run's scratch directory...
The generated host list is
chemcompute-node-0.novalocal

 Distributed Data Interface kickoff program.
 Initiating 1 compute processes on 1 nodes to run the following command:
 /data/gamess-2019R1-ddi/gamess.00.x 341587 

          ******************************************************
          *         GAMESS VERSION = 30 JUN 2019 (R1)          *
          *             FROM IOWA STATE UNIVERSITY             *
          * M.W.SCHMIDT, K.K.BALDRIDGE, J.A.BOATZ, S.T.ELBERT, *
          *   M.S.GORDON, J.H.JENSEN, S.KOSEKI, N.MATSUNAGA,   *
          *          K.A.NGUYEN, S.J.SU, T.L.WINDUS,           *
          *       TOGETHER WITH M.DUPUIS, J.A.MONTGOMERY       *
          *         J.COMPUT.CHEM.  14, 1347-1363(1993)        *
          **************** 64 BIT LINUX VERSION ****************

  SINCE 1993, STUDENTS AND POSTDOCS WORKING AT IOWA STATE UNIVERSITY
  AND ALSO IN THEIR VARIOUS JOBS AFTER LEAVING ISU HAVE MADE IMPORTANT
  CONTRIBUTIONS TO THE CODE:
     IVANA ADAMOVIC, CHRISTINE AIKENS, YURI ALEXEEV, POOJA ARORA,
     ANDREY ASADCHEV, ROB BELL, PRADIPTA BANDYOPADHYAY, JONATHAN BENTZ,
     COLLEEN BERTONI, BRETT BODE, KURT BRORSEN, CALEB CARLIN, GALINA CHABAN,
     WEI CHEN, CHEOL HO CHOI, PAUL DAY, ALBERT DEFUSCO, NUWAN DESILVA,
     TIM DUDLEY, DMITRI FEDOROV, ALEX FINDLATER, GRAHAM FLETCHER, 
     MARK FREITAG, KURT GLAESEMANN, ANASTASIA GUNINA,
     DAN KEMP, GRANT MERRILL, NORIYUKI MINEZAWA, JONATHAN MULLIN,
     TAKESHI NAGATA, SEAN NEDD, HEATHER NETZLOFF, BOSILJKA NJEGIC, RYAN OLSON,
     MIKE PAK, BUU PHAM,
     SPENCER PRUITT, LUKE ROSKOP, JIM SHOEMAKER, LYUDMILA SLIPCHENKO,
     TONY SMITH, SAROM SOK LEANG, JIE SONG, TETSUYA TAKETSUGU, SIMON WEBB,
     PENG XU, SOOHAENG YOO, FEDERICO ZAHARIEV

  ADDITIONAL CODE HAS BEEN PROVIDED BY COLLABORATORS IN OTHER GROUPS:
     IOWA STATE UNIVERSITY:
          JOE IVANIC, AARON WEST, LAIMUTIS BYTAUTAS, KLAUS RUEDENBERG
     UNIVERSITY OF TOKYO: KIMIHIKO HIRAO, TAKAHITO NAKAJIMA,
          TAKAO TSUNEDA, MUNEAKI KAMIYA, SUSUMU YANAGISAWA,
          KIYOSHI YAGI, MAHITO CHIBA, SEIKEN TOKURA, NAOAKI KAWAKAMI
     UNIVERSITY OF AARHUS: FRANK JENSEN
     UNIVERSITY OF IOWA: VISVALDAS KAIRYS, HUI LI
     NATIONAL INST. OF STANDARDS AND TECHNOLOGY: WALT STEVENS, DAVID GARMER
     UNIVERSITY OF PISA: BENEDETTA MENNUCCI, JACOPO TOMASI
     UNIVERSITY OF MEMPHIS: HENRY KURTZ, PRAKASHAN KORAMBATH
     UNIVERSITY OF ALBERTA: TOBY ZENG, MARIUSZ KLOBUKOWSKI
     UNIVERSITY OF NEW ENGLAND: MARK SPACKMAN
     MIE UNIVERSITY: HIROAKI UMEDA
     NAT. INST. OF ADVANCED INDUSTRIAL SCIENCE AND TECHNOLOGY: KAZUO KITAURA
     MICHIGAN STATE UNIVERSITY:
          KAROL KOWALSKI, MARTA WLOCH, JEFFREY GOUR, JESSE LUTZ,
          WEI LI, JUN SHEN, J. EMILIANO DEUSTUA, PIOTR PIECUCH
     UNIVERSITY OF MINNESOTA:
          YINAN SHU
     UNIVERSITY OF SILESIA: MONIKA MUSIAL, STANISLAW KUCHARSKI
     FACULTES UNIVERSITAIRES NOTRE-DAME DE LA PAIX:
          OLIVIER QUINET, BENOIT CHAMPAGNE
     UNIVERSITY OF CALIFORNIA - SANTA BARBARA: BERNARD KIRTMAN
     INSTITUTE FOR MOLECULAR SCIENCE:
          KAZUYA ISHIMURA, MICHIO KATOUDA, AND SHIGERU NAGASE
     UNIVERSITY OF NOTRE DAME: ANNA POMOGAEVA, DAN CHIPMAN
     KYUSHU UNIVERSITY:
          HARUYUKI NAKANO,
          FENG LONG GU, JACEK KORCHOWIEC, MARCIN MAKOWSKI, AND YURIKO AOKI,
          HIROTOSHI MORI AND EISAKU MIYOSHI
     PENNSYLVANIA STATE UNIVERSITY:
          TZVETELIN IORDANOV, CHET SWALINA, JONATHAN SKONE,
          SHARON HAMMES-SCHIFFER
     WASEDA UNIVERSITY:
          MASATO KOBAYASHI, TOMOKO AKAMA, TSUGUKI TOUMA,
          TAKESHI YOSHIKAWA, YASUHIRO IKABATA, JUNJI SEINO,
          YUYA NAKAJIMA, HIROMI NAKAI
     NANJING UNIVERSITY: SHUHUA LI
     UNIVERSITY OF NEBRASKA:
          PEIFENG SU, DEJUN SI, NANDUN THELLAMUREGE, YALI WANG, HUI LI
     UNIVERSITY OF ZURICH: ROBERTO PEVERATI, KIM BALDRIDGE
     N. COPERNICUS UNIVERSITY AND JACKSON STATE UNIVERSITY:
          MARIA BARYSZ
     UNIVERSITY OF COPENHAGEN: Jimmy Kromann, CASPER STEINMANN
     TOKYO INSTITUTE OF TECHNOLOGY: HIROYA NAKATA
     NAGOYA UNIVERSITY: YOSHIO NISHIMOTO, STEPHAN IRLE
     MOSCOW STATE UNIVERSITY: VLADIMIR MIRONOV
     A.N.NESMEYANOV INSTITUTE OF ORGANOELEMENT COMPOUNDS OF RUSSIAN ACADEMY OF SCIENCES:
          IGOR S. GERASIMOV

 EXECUTION OF GAMESS BEGUN Sat Nov 13 04:41:46 2021

            ECHO OF THE FIRST FEW INPUT CARDS -
 INPUT CARD>!File created by the GAMESS Input Deck Generator Plugin for Avogadro            
 INPUT CARD> $BASIS GBASIS=STO NGAUSS=3 $END                                                
 INPUT CARD> $CONTRL SCFTYP=RHF RUNTYP=SADPOINT $END                                        
 INPUT CARD> $STATPT hssend=.t. OPTTOL=0.0005 NSTEP=50 $END                                 
 INPUT CARD> $STATPT HESS=calc ihrep=5 $END                                                 
 INPUT CARD> $FORCE nvib=2 $END                                                             
 INPUT CARD> $ZMAT DLC=.t. auto=.t. nonvdw(1)=1,6,3,4,4,5,5,6,1,2,2,3 $END                  
 INPUT CARD>!$ZMAT IFZMAT(1)=1,1,6,1,3,4 fvalue(1)=2.00,2.00 $END                           
 INPUT CARD>                                                                                
 INPUT CARD> $DATA                                                                          
 INPUT CARD>Title                                                                           
 INPUT CARD>C1                                                                              
 INPUT CARD>C     6.0    -1.08007061    -5.22213554    -1.92452705                          
 INPUT CARD>C     6.0    -1.77491009    -4.49854851    -0.94821268                          
 INPUT CARD>C     6.0    -1.37674558    -3.19239259    -0.64069170                          
 INPUT CARD>C     6.0     0.50338411    -3.32988381     0.02729695                          
 INPUT CARD>C     6.0     0.81889313    -4.69202805    -0.04665749                          
 INPUT CARD>C     6.0     0.82701254    -5.27125406    -1.32400978                          
 INPUT CARD>C     6.0     1.45137668    -4.42903471    -2.40648413                          
 INPUT CARD>C     6.0     1.62092733    -3.12989044    -2.26568103                          
 INPUT CARD>C     6.0     1.17380905    -2.41790175    -1.00967932                          
 INPUT CARD>O     8.0     1.32588422    -1.21662056    -0.83206391                          
 INPUT CARD>H     1.0    -1.33558249    -6.26875210    -2.05375624                          
 INPUT CARD>H     1.0    -0.86873633    -4.72476625    -2.86324859                          
 INPUT CARD>H     1.0    -2.25391483    -5.06661463    -0.15912850                          
 INPUT CARD>H     1.0    -1.16229725    -2.52748561    -1.46896327                          
 INPUT CARD>H     1.0    -1.87430286    -2.68818378     0.18081835                          
 INPUT CARD>H     1.0     0.43275318    -2.87742519     1.01223445                          
 INPUT CARD>H     1.0     0.63867611    -5.32242489     0.81554043                          
 INPUT CARD>H     1.0     1.04346609    -6.33246946    -1.39957559                          
 INPUT CARD>H     1.0     1.75943196    -4.94103670    -3.31160569                          
 INPUT CARD>H     1.0     2.09674072    -2.52473736    -3.02613211                          
 INPUT CARD> $END                                                                           
    1000000 WORDS OF MEMORY AVAILABLE

     BASIS OPTIONS
     -------------
     GBASIS=STO          IGAUSS=       3      POLAR=NONE    
     NDFUNC=       0     NFFUNC=       0     DIFFSP=       F
     NPFUNC=       0      DIFFS=       F     BASNAM=        


     RUN TITLE
     ---------
 Title                                                                           

 THE POINT GROUP OF THE MOLECULE IS C1      
 THE ORDER OF THE PRINCIPAL AXIS IS     0

 ATOM      ATOMIC                      COORDINATES (BOHR)
           CHARGE         X                   Y                   Z
 C           6.0    -2.0410375003       -9.8684052413       -3.6368287805
 C           6.0    -3.3540937229       -8.5010240264       -1.7918621433
 C           6.0    -2.6016719010       -6.0327472403       -1.2107317556
 C           6.0     0.9512580345       -6.2925679719        0.0515837558
 C           6.0     1.5474836289       -8.8666473412       -0.0881698714
 C           6.0     1.5628270890       -9.9612257851       -2.5020156893
 C           6.0     2.7427042302       -8.3696619920       -4.5475955995
 C           6.0     3.0631084997       -5.9146353032       -4.2815163223
 C           6.0     2.2181774664       -4.5691717727       -1.9080172503
 O           8.0     2.5055578672       -2.2990794894       -1.5723727942
 H           1.0    -2.5238849401      -11.8462237540       -3.8810365392
 H           1.0    -1.6416736193       -8.9285135685       -5.4107552698
 H           1.0    -4.2592814284       -9.5745133361       -0.3007092618
 H           1.0    -2.1964233188       -4.7762552408       -2.7759380663
 H           1.0    -3.5419188234       -5.0799307488        0.3416971351
 H           1.0     0.8177849305       -5.4375451593        1.9128457458
 H           1.0     1.2069228428      -10.0579246323        1.5411479446
 H           1.0     1.9718649876      -11.9666321050       -2.6448143642
 H           1.0     3.3248442984       -9.3372054583       -6.2580273335
 H           1.0     3.9622654281       -4.7710618014       -5.7185604905

          INTERNUCLEAR DISTANCES (ANGS.)
          ------------------------------

                1 C          2 C          3 C          4 C          5 C     

   1 C       0.0000000    1.3998464 *  2.4199392 *  3.1460392    2.7227691 *
   2 C       1.3998464 *  0.0000000    1.3996955 *  2.7400768 *  2.7528260 *
   3 C       2.4199392 *  1.3996955 *  0.0000000    2.0000001 *  2.7244472 *
   4 C       3.1460392    2.7400768 *  2.0000001 *  0.0000000    1.4001615 *
   5 C       2.7227691 *  2.7528260 *  2.7244472 *  1.4001615 *  0.0000000  
   6 C       1.9999999 *  2.7401275 *  3.1056623    2.3874010 *  1.4025682 *
   7 C       2.6962042 *  3.5412306    3.5560627    2.8337454 *  2.4572307 *
   8 C       3.4335500    3.8911000    3.4103577    2.5586419 *  2.8297700 *
   9 C       3.7122294    3.6094063    2.6909695 *  1.5350898 *  2.4950004 *
  10 O       4.7985669    4.5165769    3.3532829    2.4250544 *  3.5989388  
  11 H       1.0850773 *  2.1328047 *  3.3856216    4.0434549    3.3401002  
  12 H       1.0831604 *  2.1306543 *  2.7469986 *  3.4905107    3.2836489  
  13 H       2.1257302 *  1.0838812 *  2.1246264 *  3.2639984    3.0975980  
  14 H       2.7341247 *  2.1287472 *  1.0835696 *  2.3784726 *  3.2608761  
  15 H       3.3888340    2.1358863 *  1.0847435 *  2.4675379 *  3.3645864  
  16 H       4.0510333    3.3682593    2.4709624 *  1.0861903 *  2.1361507 *
  17 H       3.2360652    3.1008056    3.2740761    2.1470565 *  1.0831729 *
  18 H       2.4531253 *  3.3926743    4.0365099    3.3679629    2.1381928 *
  19 H       3.1726611    4.2746925    4.4751701    3.9142995    3.4068322  
  20 H       4.3106404    4.8169866    4.2662860    3.5370150    3.8996554  

                6 C          7 C          8 C          9 C         10 O     

   1 C       1.9999999 *  2.6962042 *  3.4335500    3.7122294    4.7985669  
   2 C       2.7401275 *  3.5412306    3.8911000    3.6094063    4.5165769  
   3 C       3.1056623    3.5560627    3.4103577    2.6909695 *  3.3532829  
   4 C       2.3874010 *  2.8337454 *  2.5586419 *  1.5350898 *  2.4250544 *
   5 C       1.4025682 *  2.4572307 *  2.8297700 *  2.4950004 *  3.5989388  
   6 C       0.0000000    1.5069555 *  2.4703205 *  2.8914859 *  4.1147219  
   7 C       1.5069555 *  0.0000000    1.3177059 *  2.4642977 *  3.5796860  
   8 C       2.4703205 *  1.3177059 *  0.0000000    1.5114175 *  2.4089230 *
   9 C       2.8914859 *  2.4642977 *  1.5114175 *  0.0000000    1.2238262 *
  10 O       4.1147219    3.5796860    2.4089230 *  1.2238262 *  0.0000000  
  11 H       2.4908532 *  3.3579932    4.3172115    4.7134054    5.8395180  
  12 H       2.3544573 *  2.3830685 *  3.0164782    3.5957384    4.6096808  
  13 H       3.3001423    4.3802170    4.8169353    4.4145677    5.3000243  
  14 H       3.3921424    3.3654310    2.9570238 *  2.3833470 *  2.8835837 *
  15 H       4.0291270    4.5590394    4.2891838    3.2834925    3.6650547  
  16 H       3.3680698    3.8900800    3.4957440    2.2019221 *  2.6376868 *
  17 H       2.1484330 *  3.4409404    3.9071666    3.4718942    4.4771067  
  18 H       1.0856981 *  2.1916477 *  3.3675084    3.9360956    5.1549723  
  19 H       2.2201322 *  1.0845686 *  2.0960422 *  3.4652603    4.4952605  
  20 H       3.4717120    2.1039978 *  1.0820788 *  2.2202024 *  2.6682062 *

               11 H         12 H         13 H         14 H         15 H     

   1 C       1.0850773 *  1.0831604 *  2.1257302 *  2.7341247 *  3.3888340  
   2 C       2.1328047 *  2.1306543 *  1.0838812 *  2.1287472 *  2.1358863 *
   3 C       3.3856216    2.7469986 *  2.1246264 *  1.0835696 *  1.0847435 *
   4 C       4.0434549    3.4905107    3.2639984    2.3784726 *  2.4675379 *
   5 C       3.3401002    3.2836489    3.0975980    3.2608761    3.3645864  
   6 C       2.4908532 *  2.3544573 *  3.3001423    3.3921424    4.0291270  
   7 C       3.3579932    2.3830685 *  4.3802170    3.3654310    4.5590394  
   8 C       4.3172115    3.0164782    4.8169353    2.9570238 *  4.2891838  
   9 C       4.7134054    3.5957384    4.4145677    2.3833470 *  3.2834925  
  10 O       5.8395180    4.6096808    5.3000243    2.8835837 *  3.6650547  
  11 H       0.0000000    1.8047480 *  2.4244758 *  3.7906577    4.2548810  
  12 H       1.8047480 *  0.0000000    3.0574246    2.6188264 *  3.7980489  
  13 H       2.4244758 *  3.0574246    0.0000000    3.0585082    2.4324067 *
  14 H       3.7906577    2.6188264 *  3.0585082    0.0000000    1.8040386 *
  15 H       4.2548810    3.7980489    2.4324067 *  1.8040386 *  0.0000000  
  16 H       4.9018780    4.4861913    3.6582546    2.9703511 *  2.4595879 *
  17 H       3.6091683    4.0203205    3.0630868    4.0341229    3.6955597  
  18 H       2.4681743 *  2.8954389 *  3.7435035    4.3986485    4.9286752  
  19 H       3.5950143    2.6748954 *  5.1049814    4.2139129    5.5205435  
  20 H       5.1714605    3.6960401    5.7973316    3.6119400    5.1069005  

               16 H         17 H         18 H         19 H         20 H     

   1 C       4.0510333    3.2360652    2.4531253 *  3.1726611    4.3106404  
   2 C       3.3682593    3.1008056    3.3926743    4.2746925    4.8169866  
   3 C       2.4709624 *  3.2740761    4.0365099    4.4751701    4.2662860  
   4 C       1.0861903 *  2.1470565 *  3.3679629    3.9142995    3.5370150  
   5 C       2.1361507 *  1.0831729 *  2.1381928 *  3.4068322    3.8996554  
   6 C       3.3680698    2.1484330 *  1.0856981 *  2.2201322 *  3.4717120  
   7 C       3.8900800    3.4409404    2.1916477 *  1.0845686 *  2.1039978 *
   8 C       3.4957440    3.9071666    3.3675084    2.0960422 *  1.0820788 *
   9 C       2.2019221 *  3.4718942    3.9360956    3.4652603    2.2202024 *
  10 O       2.6376868 *  4.4771067    5.1549723    4.4952605    2.6682062 *
  11 H       4.9018780    3.6091683    2.4681743 *  3.5950143    5.1714605  
  12 H       4.4861913    4.0203205    2.8954389 *  2.6748954 *  3.6960401  
  13 H       3.6582546    3.0630868    3.7435035    5.1049814    5.7973316  
  14 H       2.9703511 *  4.0341229    4.3986485    4.2139129    3.6119400  
  15 H       2.4595879 *  3.6955597    4.9286752    5.5205435    5.1069005  
  16 H       0.0000000    2.4615272 *  4.2575966    4.9713341    4.3819685  
  17 H       2.4615272 *  0.0000000    2.4679514 *  4.2935866    4.9710618  
  18 H       4.2575966    2.4679514 *  0.0000000    2.4707390 *  4.2724580  
  19 H       4.9713341    4.2935866    2.4707390 *  0.0000000    2.4563743 *
  20 H       4.3819685    4.9710618    4.2724580    2.4563743 *  0.0000000  

  * ... LESS THAN  3.000


     ATOMIC BASIS SET
     ----------------
 THE CONTRACTED PRIMITIVE FUNCTIONS HAVE BEEN UNNORMALIZED
 THE CONTRACTED BASIS FUNCTIONS ARE NOW NORMALIZED TO UNITY

  SHELL TYPE  PRIMITIVE        EXPONENT          CONTRACTION COEFFICIENT(S)

 C         

      1   S       1            71.6168373    0.154328967295
      1   S       2            13.0450963    0.535328142282
      1   S       3             3.5305122    0.444634542185

      2   L       4             2.9412494   -0.099967229187    0.155916274999
      2   L       5             0.6834831    0.399512826089    0.607683718598
      2   L       6             0.2222899    0.700115468880    0.391957393099

 C         

      3   S       7            71.6168373    0.154328967295
      3   S       8            13.0450963    0.535328142282
      3   S       9             3.5305122    0.444634542185

      4   L      10             2.9412494   -0.099967229187    0.155916274999
      4   L      11             0.6834831    0.399512826089    0.607683718598
      4   L      12             0.2222899    0.700115468880    0.391957393099

 C         

      5   S      13            71.6168373    0.154328967295
      5   S      14            13.0450963    0.535328142282
      5   S      15             3.5305122    0.444634542185

      6   L      16             2.9412494   -0.099967229187    0.155916274999
      6   L      17             0.6834831    0.399512826089    0.607683718598
      6   L      18             0.2222899    0.700115468880    0.391957393099

 C         

      7   S      19            71.6168373    0.154328967295
      7   S      20            13.0450963    0.535328142282
      7   S      21             3.5305122    0.444634542185

      8   L      22             2.9412494   -0.099967229187    0.155916274999
      8   L      23             0.6834831    0.399512826089    0.607683718598
      8   L      24             0.2222899    0.700115468880    0.391957393099

 C         

      9   S      25            71.6168373    0.154328967295
      9   S      26            13.0450963    0.535328142282
      9   S      27             3.5305122    0.444634542185

     10   L      28             2.9412494   -0.099967229187    0.155916274999
     10   L      29             0.6834831    0.399512826089    0.607683718598
     10   L      30             0.2222899    0.700115468880    0.391957393099

 C         

     11   S      31            71.6168373    0.154328967295
     11   S      32            13.0450963    0.535328142282
     11   S      33             3.5305122    0.444634542185

     12   L      34             2.9412494   -0.099967229187    0.155916274999
     12   L      35             0.6834831    0.399512826089    0.607683718598
     12   L      36             0.2222899    0.700115468880    0.391957393099

 C         

     13   S      37            71.6168373    0.154328967295
     13   S      38            13.0450963    0.535328142282
     13   S      39             3.5305122    0.444634542185

     14   L      40             2.9412494   -0.099967229187    0.155916274999
     14   L      41             0.6834831    0.399512826089    0.607683718598
     14   L      42             0.2222899    0.700115468880    0.391957393099

 C         

     15   S      43            71.6168373    0.154328967295
     15   S      44            13.0450963    0.535328142282
     15   S      45             3.5305122    0.444634542185

     16   L      46             2.9412494   -0.099967229187    0.155916274999
     16   L      47             0.6834831    0.399512826089    0.607683718598
     16   L      48             0.2222899    0.700115468880    0.391957393099

 C         

     17   S      49            71.6168373    0.154328967295
     17   S      50            13.0450963    0.535328142282
     17   S      51             3.5305122    0.444634542185

     18   L      52             2.9412494   -0.099967229187    0.155916274999
     18   L      53             0.6834831    0.399512826089    0.607683718598
     18   L      54             0.2222899    0.700115468880    0.391957393099

 O         

     19   S      55           130.7093214    0.154328967295
     19   S      56            23.8088661    0.535328142282
     19   S      57             6.4436083    0.444634542185

     20   L      58             5.0331513   -0.099967229187    0.155916274999
     20   L      59             1.1695961    0.399512826089    0.607683718598
     20   L      60             0.3803890    0.700115468880    0.391957393099

 H         

     21   S      61             3.4252509    0.154328967295
     21   S      62             0.6239137    0.535328142282
     21   S      63             0.1688554    0.444634542185

 H         

     22   S      64             3.4252509    0.154328967295
     22   S      65             0.6239137    0.535328142282
     22   S      66             0.1688554    0.444634542185

 H         

     23   S      67             3.4252509    0.154328967295
     23   S      68             0.6239137    0.535328142282
     23   S      69             0.1688554    0.444634542185

 H         

     24   S      70             3.4252509    0.154328967295
     24   S      71             0.6239137    0.535328142282
     24   S      72             0.1688554    0.444634542185

 H         

     25   S      73             3.4252509    0.154328967295
     25   S      74             0.6239137    0.535328142282
     25   S      75             0.1688554    0.444634542185

 H         

     26   S      76             3.4252509    0.154328967295
     26   S      77             0.6239137    0.535328142282
     26   S      78             0.1688554    0.444634542185

 H         

     27   S      79             3.4252509    0.154328967295
     27   S      80             0.6239137    0.535328142282
     27   S      81             0.1688554    0.444634542185

 H         

     28   S      82             3.4252509    0.154328967295
     28   S      83             0.6239137    0.535328142282
     28   S      84             0.1688554    0.444634542185

 H         

     29   S      85             3.4252509    0.154328967295
     29   S      86             0.6239137    0.535328142282
     29   S      87             0.1688554    0.444634542185

 H         

     30   S      88             3.4252509    0.154328967295
     30   S      89             0.6239137    0.535328142282
     30   S      90             0.1688554    0.444634542185

 TOTAL NUMBER OF BASIS SET SHELLS             =   30
 NUMBER OF CARTESIAN GAUSSIAN BASIS FUNCTIONS =   60
 NUMBER OF ELECTRONS                          =   72
 CHARGE OF MOLECULE                           =    0
 SPIN MULTIPLICITY                            =    1
 NUMBER OF OCCUPIED ORBITALS (ALPHA)          =   36
 NUMBER OF OCCUPIED ORBITALS (BETA )          =   36
 TOTAL NUMBER OF ATOMS                        =   20
 THE NUCLEAR REPULSION ENERGY IS      509.6276162519

     $CONTRL OPTIONS
     ---------------
 SCFTYP=RHF          RUNTYP=SADPOINT     EXETYP=RUN     
 MPLEVL=       0     CITYP =NONE         CCTYP =NONE         VBTYP =NONE    
 DFTTYP=NONE         TDDFT =NONE    
 MULT  =       1     ICHARG=       0     NZVAR =       0     COORD =UNIQUE  
 PP    =NONE         RELWFN=NONE         LOCAL =NONE         NUMGRD=       F
 ISPHER=      -1     NOSYM =       0     MAXIT =      30     UNITS =ANGS    
 PLTORB=       F     MOLPLT=       F     AIMPAC=       F     FRIEND=        
 NPRINT=       7     IREST =       0     GEOM  =INPUT   
 NORMF =       0     NORMP =       0     ITOL  =      20     ICUT  =       9
 INTTYP=BEST         GRDTYP=BEST         QMTTOL= 1.0E-06

     $SYSTEM OPTIONS
     ---------------
  REPLICATED MEMORY=     1000000 WORDS (ON EVERY NODE).
 DISTRIBUTED MEMDDI=           0 MILLION WORDS IN AGGREGATE,
 MEMDDI DISTRIBUTED OVER   1 PROCESSORS IS           0 WORDS/PROCESSOR.
 TOTAL MEMORY REQUESTED ON EACH PROCESSOR=     1000000 WORDS.
 TIMLIM=      525600.00 MINUTES, OR     365.0 DAYS.
 PARALL= F  BALTYP=  DLB     KDIAG=    0  COREFL= F
 MXSEQ2=     300 MXSEQ3=     150  mem10=         0

          ----------------
          PROPERTIES INPUT
          ----------------

     MOMENTS            FIELD           POTENTIAL          DENSITY
 IEMOM =       1   IEFLD =       0   IEPOT =       0   IEDEN =       0
 WHERE =COMASS     WHERE =NUCLEI     WHERE =NUCLEI     WHERE =NUCLEI  
 OUTPUT=BOTH       OUTPUT=BOTH       OUTPUT=BOTH       OUTPUT=BOTH    
 IEMINT=       0   IEFINT=       0                     IEDINT=       0
                                                       MORB  =       0
          EXTRAPOLATION IN EFFECT
          SOSCF IN EFFECT
 ORBITAL PRINTING OPTION: NPREO=     1    60     2     1

     -------------------------------
     INTEGRAL TRANSFORMATION OPTIONS
     -------------------------------
     NWORD  =            0
     CUTOFF = 1.0E-09     MPTRAN =       0
     DIRTRF =       F     AOINTS =DUP     

          ----------------------
          INTEGRAL INPUT OPTIONS
          ----------------------
 NOPK  =       1 NORDER=       0 SCHWRZ=       T

     ------------------------------------------
     THE POINT GROUP IS C1 , NAXIS= 0, ORDER= 1
     ------------------------------------------

     DIMENSIONS OF THE SYMMETRY SUBSPACES ARE
 A   =   60

 ..... DONE SETTING UP THE RUN .....
 STEP CPU TIME =     0.03 TOTAL CPU TIME =          0.0 (      0.0 MIN)
 TOTAL WALL CLOCK TIME=          0.0 SECONDS, CPU UTILIZATION IS    60.00%


          -----------------------------
          STATIONARY POINT LOCATION RUN
          -----------------------------

 OBTAINING INITIAL HESSIAN, HESS=CALC    

     ---------------------------------
     HESSIAN MATRIX CONTROL PARAMETERS
     ---------------------------------
     METHOD=ANALYTIC   NVIB  =       2   VIBSIZ= 0.01000
     RDHESS=       F   PURIFY=       F   PRTIFC=       F
     VIBANL=       F   DECOMP=       F   PROJCT=       F
     SCLFAC= 1.00000   PRTSCN=       F   NPRT  =       0
     PULCOR=       F   NPUN  =       0   REDOVB=       T
     HSSTYP=GENERAL 
 Old integral subroutine is used

     ------------------------------
     CPHF RESPONSE SOLUTION OPTIONS
     ------------------------------
     POLAR  =       F     NWORD  =       0
     CPHF   =AO      

          ********************
          1 ELECTRON INTEGRALS
          ********************
 ...... END OF ONE-ELECTRON INTEGRALS ......
 STEP CPU TIME =     0.03 TOTAL CPU TIME =          0.1 (      0.0 MIN)
 TOTAL WALL CLOCK TIME=          0.1 SECONDS, CPU UTILIZATION IS    75.00%

          -------------
          GUESS OPTIONS
          -------------
          GUESS =HUCKEL            NORB  =       0          NORDER=       0
          MIX   =       F          PRTMO =       F          PUNMO =       F
          TOLZ  = 1.0E-08          TOLE  = 1.0E-05
          SYMDEN=       F          PURIFY=       F

 INITIAL GUESS ORBITALS GENERATED BY HUCKEL   ROUTINE.
 HUCKEL GUESS REQUIRES     53820 WORDS.

 SYMMETRIES FOR INITIAL GUESS ORBITALS FOLLOW.   BOTH SET(S).
    36 ORBITALS ARE OCCUPIED (   10 CORE ORBITALS).
    11=A       12=A       13=A       14=A       15=A       16=A       17=A   
    18=A       19=A       20=A       21=A       22=A       23=A       24=A   
    25=A       26=A       27=A       28=A       29=A       30=A       31=A   
    32=A       33=A       34=A       35=A       36=A       37=A       38=A   
    39=A       40=A       41=A       42=A       43=A       44=A       45=A   
    46=A   
 ...... END OF INITIAL ORBITAL SELECTION ......
 STEP CPU TIME =     0.02 TOTAL CPU TIME =          0.1 (      0.0 MIN)
 TOTAL WALL CLOCK TIME=          0.1 SECONDS, CPU UTILIZATION IS    80.00%

                    ----------------------
                    AO INTEGRAL TECHNOLOGY
                    ----------------------
     S,P,L SHELL ROTATED AXIS INTEGRALS, REPROGRAMMED BY
        KAZUYA ISHIMURA (IMS) AND JOSE SIERRA (SYNSTAR).
     S,P,D,L SHELL ROTATED AXIS INTEGRALS PROGRAMMED BY
        KAZUYA ISHIMURA (INSTITUTE FOR MOLECULAR SCIENCE).
     S,P,D,F,G SHELL TO TOTAL QUARTET ANGULAR MOMENTUM SUM 5,
        ERIC PROGRAM BY GRAHAM FLETCHER (ELORET AND NASA ADVANCED
        SUPERCOMPUTING DIVISION, AMES RESEARCH CENTER).
     S,P,D,F,G,L SHELL GENERAL RYS QUADRATURE PROGRAMMED BY
        MICHEL DUPUIS (PACIFIC NORTHWEST NATIONAL LABORATORY).

          --------------------
          2 ELECTRON INTEGRALS
          --------------------

 THE -PK- OPTION IS OFF, THE INTEGRALS ARE NOT IN SUPERMATRIX FORM.
 STORING   15000 INTEGRALS/RECORD ON DISK, USING 12 BYTES/INTEGRAL.
 TWO ELECTRON INTEGRAL EVALUATION REQUIRES   89821 WORDS OF MEMORY.
 SCHWARZ INEQUALITY OVERHEAD:      1797 INTEGRALS, T=        0.00
 II,JST,KST,LST =  1  1  1  1 NREC =         1 INTLOC =    1
 II,JST,KST,LST =  2  1  1  1 NREC =         1 INTLOC =    2
 II,JST,KST,LST =  3  1  1  1 NREC =         1 INTLOC =   34
 II,JST,KST,LST =  4  1  1  1 NREC =         1 INTLOC =  144
 II,JST,KST,LST =  5  1  1  1 NREC =         1 INTLOC = 1365
 II,JST,KST,LST =  6  1  1  1 NREC =         1 INTLOC = 1963
 II,JST,KST,LST =  7  1  1  1 NREC =         1 INTLOC = 6863
 II,JST,KST,LST =  8  1  1  1 NREC =         1 INTLOC = 8481
 II,JST,KST,LST =  9  1  1  1 NREC =         2 INTLOC = 5910
 II,JST,KST,LST = 10  1  1  1 NREC =         2 INTLOC = 9713
 II,JST,KST,LST = 11  1  1  1 NREC =         4 INTLOC = 5091
 II,JST,KST,LST = 12  1  1  1 NREC =         4 INTLOC =12205
 II,JST,KST,LST = 13  1  1  1 NREC =         7 INTLOC =12340
 II,JST,KST,LST = 14  1  1  1 NREC =         8 INTLOC = 8797
 II,JST,KST,LST = 15  1  1  1 NREC =        13 INTLOC = 6285
 II,JST,KST,LST = 16  1  1  1 NREC =        14 INTLOC = 8847
 II,JST,KST,LST = 17  1  1  1 NREC =        21 INTLOC =12870
 II,JST,KST,LST = 18  1  1  1 NREC =        23 INTLOC = 8682
 II,JST,KST,LST = 19  1  1  1 NREC =        34 INTLOC = 1041
 II,JST,KST,LST = 20  1  1  1 NREC =        35 INTLOC =11096
 II,JST,KST,LST = 21  1  1  1 NREC =        47 INTLOC =12275
 II,JST,KST,LST = 22  1  1  1 NREC =        51 INTLOC = 7995
 II,JST,KST,LST = 23  1  1  1 NREC =        55 INTLOC =12368
 II,JST,KST,LST = 24  1  1  1 NREC =        60 INTLOC = 1274
 II,JST,KST,LST = 25  1  1  1 NREC =        65 INTLOC =  205
 II,JST,KST,LST = 26  1  1  1 NREC =        70 INTLOC =  833
 II,JST,KST,LST = 27  1  1  1 NREC =        75 INTLOC = 7660
 II,JST,KST,LST = 28  1  1  1 NREC =        81 INTLOC = 2881
 II,JST,KST,LST = 29  1  1  1 NREC =        87 INTLOC =  347
 II,JST,KST,LST = 30  1  1  1 NREC =        93 INTLOC = 2822
 SCHWARZ INEQUALITY TEST SKIPPED       24147 INTEGRAL BLOCKS.
 TOTAL NUMBER OF NONZERO TWO-ELECTRON INTEGRALS =             1480644
         99 INTEGRAL RECORDS WERE STORED ON DISK FILE  8.
  ...... END OF TWO-ELECTRON INTEGRALS .....
 STEP CPU TIME =     0.29 TOTAL CPU TIME =          0.4 (      0.0 MIN)
 TOTAL WALL CLOCK TIME=          0.4 SECONDS, CPU UTILIZATION IS    90.24%

          --------------------------
                 RHF SCF CALCULATION
          --------------------------

     NUCLEAR ENERGY =       509.6276162519
     MAXIT =   30     NPUNCH=    2
     EXTRAP=T  DAMP=F  SHIFT=F  RSTRCT=F  DIIS=F  DEM=F  SOSCF=T
     DENSITY MATRIX CONV=  1.00E-05
     SOSCF WILL OPTIMIZE     864 ORBITAL ROTATIONS, SOGTOL=   0.250
     MEMORY REQUIRED FOR RHF ITERS=     59496 WORDS.

 ITER EX DEM     TOTAL ENERGY        E CHANGE  DENSITY CHANGE     ORB. GRAD
   1  0  0     -415.5233297623  -415.5233297623   0.524926262   0.000000000
          ---------------START SECOND ORDER SCF---------------
   2  1  0     -416.0288690673    -0.5055393050   0.304428872   0.064773994
   3  2  0     -416.0582800779    -0.0294110107   0.141865834   0.049247150
   4  3  0     -416.0921765406    -0.0338964627   0.027676951   0.007299128
   5  4  0     -416.0930425659    -0.0008660253   0.006537008   0.002934886
   6  5  0     -416.0931504969    -0.0001079310   0.002123327   0.000762909
   7  6  0     -416.0931630288    -0.0000125318   0.000781425   0.000261653
   8  7  0     -416.0931648798    -0.0000018510   0.000217450   0.000072944
   9  8  0     -416.0931650572    -0.0000001774   0.000131258   0.000023601
  10  9  0     -416.0931650890    -0.0000000318   0.000062400   0.000011481
  11 10  0     -416.0931650941    -0.0000000051   0.000026675   0.000003471
  12 11  0     -416.0931650950    -0.0000000010   0.000009369   0.000001378
  13 12  0     -416.0931650952    -0.0000000001   0.000004868   0.000000513

          -----------------
          DENSITY CONVERGED
          -----------------
     TIME TO FORM FOCK OPERATORS=       0.3 SECONDS (       0.0 SEC/ITER)
     TIME TO SOLVE SCF EQUATIONS=       0.1 SECONDS (       0.0 SEC/ITER)

 FINAL RHF ENERGY IS     -416.0931650952 AFTER  13 ITERATIONS

          ------------
          EIGENVECTORS
          ------------

                      1          2          3          4          5
                  -20.2612   -11.1181   -11.0543   -11.0493   -11.0456
                     A          A          A          A          A   
    1  C  1  S   -0.000000   0.000023  -0.030550  -0.005767  -0.093663
    2  C  1  S    0.000003  -0.000004  -0.003831   0.000013  -0.003298
    3  C  1  X    0.000000   0.000009  -0.002337  -0.000253   0.000088
    4  C  1  Y   -0.000002   0.000010   0.000027  -0.000061  -0.000153
    5  C  1  Z    0.000001  -0.000007  -0.000789  -0.000165   0.000003
    6  C  2  S   -0.000000   0.000015  -0.000571   0.000061   0.003815
    7  C  2  S    0.000010  -0.000030   0.000351   0.000060  -0.005971
    8  C  2  X   -0.000002   0.000037   0.000154   0.000052  -0.000963
    9  C  2  Y    0.000006  -0.000033  -0.000119   0.000022  -0.004348
   10  C  2  Z    0.000007  -0.000038  -0.000148  -0.000021  -0.001254
   11  C  3  S   -0.000005  -0.000221  -0.000698   0.000660   0.956304
   12  C  3  S   -0.000000   0.000304  -0.000021   0.000046   0.035457
   13  C  3  X    0.000037  -0.000243  -0.000057   0.000009  -0.000702
   14  C  3  Y    0.000024   0.000024   0.000041   0.000025  -0.000448
   15  C  3  Z    0.000012  -0.000112   0.000032   0.000004  -0.000517
   16  C  4  S   -0.000024  -0.001610  -0.004061  -0.005452  -0.246333
   17  C  4  S    0.000270  -0.005397  -0.000069  -0.000230  -0.011486
   18  C  4  X    0.000036  -0.001816   0.000030  -0.000054   0.001897
   19  C  4  Y    0.000438  -0.002527   0.000049   0.000060   0.000109
   20  C  4  Z    0.000187   0.002564   0.000183   0.000156   0.000707
   21  C  5  S    0.000004  -0.000278   0.003928  -0.001152  -0.002032
   22  C  5  S    0.000033   0.000070  -0.006878  -0.000015   0.001838
   23  C  5  X   -0.000050  -0.000027  -0.000138  -0.000090  -0.000270
   24  C  5  Y   -0.000000  -0.000010   0.001963  -0.000011   0.001204
   25  C  5  Z    0.000051   0.000003   0.004120   0.000111   0.000077
   26  C  6  S    0.000003  -0.000254   0.991337   0.024119  -0.003374
   27  C  6  S    0.000007  -0.000064   0.036228  -0.004861   0.000126
   28  C  6  X    0.000008  -0.000033   0.001410  -0.001771  -0.000198
   29  C  6  Y   -0.000040  -0.000103   0.000592  -0.002420  -0.000000
   30  C  6  Z   -0.000006   0.000014   0.000852   0.002870  -0.000065
   31  C  7  S    0.000005  -0.000272  -0.023326   0.991731  -0.002493
   32  C  7  S    0.000054   0.000111  -0.006866   0.035856  -0.000060
   33  C  7  X    0.000033  -0.000041   0.001638   0.000142  -0.000017
   34  C  7  Y    0.000033  -0.000014   0.002341   0.001663   0.000011
   35  C  7  Z   -0.000060   0.000079  -0.003236   0.000135   0.000047
   36  C  8  S   -0.000025  -0.001005  -0.001143   0.019716   0.000526
   37  C  8  S    0.000270  -0.005689   0.000344  -0.007398   0.000039
   38  C  8  X    0.000124   0.001141  -0.000032   0.000582  -0.000052
   39  C  8  Y    0.000495  -0.002112  -0.000152   0.004502   0.000007
   40  C  8  Z   -0.000055  -0.003354   0.000100   0.000502  -0.000003
   41  C  9  S    0.000548   0.992564   0.000267   0.000342  -0.000413
   42  C  9  S   -0.007195   0.032728  -0.000008   0.000149   0.001554
   43  C  9  X   -0.000789   0.000013   0.000007   0.000025  -0.000458
   44  C  9  Y   -0.006266   0.000412   0.000122   0.000151  -0.000642
   45  C  9  Z   -0.000918  -0.000111   0.000074   0.000001   0.000778
   46  O 10  S    0.994267   0.000162   0.000005   0.000013  -0.000002
   47  O 10  S    0.025993  -0.005790  -0.000053  -0.000115  -0.000032
   48  O 10  X   -0.000702   0.000218   0.000004   0.000000  -0.000015
   49  O 10  Y   -0.005508   0.001691   0.000034   0.000059   0.000026
   50  O 10  Z   -0.000814   0.000269  -0.000002   0.000026  -0.000044
   51  H 11  S   -0.000002   0.000002   0.000358  -0.000012   0.000555
   52  H 12  S   -0.000002   0.000006   0.000363  -0.000948   0.000623
   53  H 13  S   -0.000002   0.000006  -0.000001   0.000001   0.000038
   54  H 14  S    0.000080  -0.001057   0.000005  -0.000042  -0.006720
   55  H 15  S   -0.000006  -0.000035  -0.000017  -0.000014  -0.006681
   56  H 16  S   -0.000179  -0.000014  -0.000090  -0.000023   0.001862
   57  H 17  S   -0.000021  -0.000052   0.000080  -0.000080  -0.000015
   58  H 18  S   -0.000016  -0.000026  -0.006924  -0.000128   0.000020
   59  H 19  S   -0.000021  -0.000038   0.000240  -0.006826   0.000026
   60  H 20  S   -0.000192   0.000012  -0.000037   0.000011   0.000014

                      6          7          8          9         10
                  -11.0452   -11.0444   -11.0258   -11.0184   -11.0121
                     A          A          A          A          A   
    1  C  1  S    0.987115   0.016998  -0.000216   0.000967  -0.003439
    2  C  1  S    0.035847   0.000652   0.000047   0.000289  -0.007230
    3  C  1  X   -0.001595  -0.000095   0.000010  -0.000065   0.002184
    4  C  1  Y    0.000501  -0.000055   0.000002   0.000029  -0.002406
    5  C  1  Z   -0.000164  -0.000029  -0.000053  -0.000063  -0.003312
    6  C  2  S    0.004593   0.000551   0.000105  -0.018479   0.991933
    7  C  2  S   -0.007394  -0.001719   0.000028  -0.001163   0.036723
    8  C  2  X   -0.002251  -0.000280   0.000008  -0.000639   0.002479
    9  C  2  Y    0.001975  -0.000948  -0.000002   0.000087  -0.000014
   10  C  2  Z    0.003100  -0.000158   0.000006  -0.000287   0.000600
   11  C  3  S    0.086479   0.249861  -0.000269   0.000889  -0.003421
   12  C  3  S    0.003367   0.006461   0.000087   0.000298  -0.007232
   13  C  3  X   -0.000126  -0.002628   0.000001  -0.000062   0.001193
   14  C  3  Y    0.000010   0.000119   0.000074   0.000018   0.004374
   15  C  3  Z    0.000053  -0.001005  -0.000031  -0.000034   0.000983
   16  C  4  S   -0.040056   0.960218   0.001487  -0.004610   0.000543
   17  C  4  S   -0.001659   0.034025   0.000248  -0.007297   0.000019
   18  C  4  X    0.000172   0.002096   0.000039  -0.000937   0.000020
   19  C  4  Y    0.000027  -0.000853   0.000028   0.004502   0.000159
   20  C  4  Z    0.000108   0.000525   0.000045   0.000260   0.000026
   21  C  5  S   -0.001032   0.005011  -0.004290   0.991918   0.018717
   22  C  5  S    0.000170  -0.006678  -0.000269   0.036679   0.000201
   23  C  5  X   -0.000050   0.000894  -0.000078  -0.002042   0.000602
   24  C  5  Y    0.000208  -0.004290  -0.000132   0.000567   0.000006
   25  C  5  Z    0.000046  -0.000317   0.000162  -0.001267   0.000135
   26  C  6  S    0.031314   0.004849   0.000709  -0.003117   0.000405
   27  C  6  S   -0.001557   0.000169   0.000406  -0.007214   0.000019
   28  C  6  X    0.002438   0.000133   0.000102   0.000130   0.000047
   29  C  6  Y   -0.000057  -0.000205   0.000000  -0.001906  -0.000092
   30  C  6  Z    0.000731   0.000050  -0.000123  -0.004182  -0.000120
   31  C  7  S    0.004761   0.005174  -0.019197   0.001215  -0.000076
   32  C  7  S    0.000132   0.000118  -0.008920   0.000147   0.000008
   33  C  7  X   -0.000023   0.000075  -0.000615  -0.000074  -0.000037
   34  C  7  Y    0.000014  -0.000075  -0.004637  -0.000111   0.000028
   35  C  7  Z   -0.000075  -0.000138  -0.000512  -0.000124  -0.000005
   36  C  8  S    0.000350  -0.001212   0.991968   0.004385  -0.000030
   37  C  8  S    0.000019   0.000065   0.036541   0.000092  -0.000014
   38  C  8  X   -0.000024   0.000030  -0.000246   0.000008  -0.000000
   39  C  8  Y   -0.000002   0.000038  -0.001887   0.000099   0.000004
   40  C  8  Z   -0.000010  -0.000004  -0.000025  -0.000173  -0.000002
   41  C  9  S   -0.000100   0.002579   0.001994   0.000340  -0.000013
   42  C  9  S    0.000254  -0.005458  -0.005878   0.000129  -0.000010
   43  C  9  X   -0.000077   0.001614  -0.001246  -0.000111  -0.000026
   44  C  9  Y   -0.000102   0.002392   0.002000   0.000115  -0.000014
   45  C  9  Z    0.000126  -0.002858   0.003462   0.000041  -0.000040
   46  O 10  S    0.000001  -0.000022  -0.000022   0.000009   0.000000
   47  O 10  S   -0.000011   0.000244   0.000249  -0.000085   0.000005
   48  O 10  X   -0.000002  -0.000081   0.000061   0.000035   0.000007
   49  O 10  Y    0.000008  -0.000147  -0.000119   0.000038  -0.000005
   50  O 10  Z   -0.000009   0.000155  -0.000177  -0.000001   0.000001
   51  H 11  S   -0.006889  -0.000162  -0.000010  -0.000031   0.000107
   52  H 12  S   -0.006907  -0.000133  -0.000105  -0.000057   0.000014
   53  H 13  S    0.000051   0.000009  -0.000004   0.000141  -0.007002
   54  H 14  S   -0.000659  -0.001612  -0.000209  -0.000044   0.000020
   55  H 15  S   -0.000714  -0.001610  -0.000018  -0.000040   0.000105
   56  H 16  S    0.000274  -0.006683  -0.000099   0.000120  -0.000033
   57  H 17  S   -0.000001   0.000068  -0.000031  -0.006920  -0.000118
   58  H 18  S   -0.000085  -0.000156  -0.000094   0.000106  -0.000042
   59  H 19  S    0.000012  -0.000092   0.000266  -0.000106  -0.000003
   60  H 20  S   -0.000001  -0.000067  -0.006868  -0.000089   0.000001

                     11         12         13         14         15
                   -1.3129    -1.0917    -1.0182    -0.9718    -0.9333
                     A          A          A          A          A   
    1  C  1  S   -0.000701  -0.056356  -0.102729   0.069518  -0.076382
    2  C  1  S    0.001708   0.149825   0.276485  -0.191366   0.219180
    3  C  1  X    0.000224   0.005420  -0.048539   0.026107   0.022057
    4  C  1  Y    0.000387   0.019085   0.043755  -0.021377  -0.015792
    5  C  1  Z    0.000283   0.021520   0.049740  -0.011342  -0.003556
    6  C  2  S   -0.001041  -0.058348  -0.147841   0.066211   0.012159
    7  C  2  S    0.002304   0.145615   0.383233  -0.175397  -0.032681
    8  C  2  X    0.000801   0.032042   0.054550  -0.018870   0.010747
    9  C  2  Y    0.000693   0.007880   0.025289   0.012278  -0.084229
   10  C  2  Z    0.000127  -0.008860  -0.016927   0.026618  -0.048368
   11  C  3  S   -0.003128  -0.051072  -0.114922   0.018443   0.091572
   12  C  3  S    0.007660   0.135658   0.310333  -0.047066  -0.260594
   13  C  3  X    0.002529   0.008647  -0.024887   0.034786  -0.004161
   14  C  3  Y    0.000720  -0.027338  -0.069942   0.031503  -0.005594
   15  C  3  Z   -0.000358  -0.006823  -0.023147   0.023400  -0.002178
   16  C  4  S   -0.021435  -0.087724  -0.008671  -0.125952   0.084072
   17  C  4  S    0.053612   0.230136   0.026357   0.348144  -0.241614
   18  C  4  X    0.012487   0.016081  -0.031562   0.031693  -0.002705
   19  C  4  Y    0.016212  -0.047761   0.000819  -0.067491  -0.051412
   20  C  4  Z   -0.017982  -0.026699   0.007293   0.008042   0.023302
   21  C  5  S   -0.005571  -0.108619   0.008414  -0.128252  -0.047923
   22  C  5  S    0.012748   0.273164  -0.021814   0.342485   0.130777
   23  C  5  X   -0.000677  -0.016795  -0.016887  -0.025629   0.006184
   24  C  5  Y    0.005586   0.026528   0.005676   0.062888  -0.101913
   25  C  5  Z   -0.001772  -0.058006   0.018367  -0.001366  -0.074014
   26  C  6  S   -0.003223  -0.112711   0.030989  -0.020064  -0.131110
   27  C  6  S    0.007681   0.296986  -0.082669   0.051352   0.372793
   28  C  6  X    0.000702   0.011055  -0.043242  -0.007229   0.001105
   29  C  6  Y    0.002776   0.052890  -0.025941   0.006797  -0.013552
   30  C  6  Z    0.000552   0.019125   0.019513   0.109303   0.023050
   31  C  7  S   -0.006022  -0.103342   0.093394   0.105342  -0.008338
   32  C  7  S    0.014328   0.263370  -0.245545  -0.283178   0.026816
   33  C  7  X    0.000005  -0.017551  -0.008074  -0.013602  -0.039395
   34  C  7  Y    0.006399   0.027641  -0.054974  -0.076309  -0.118827
   35  C  7  Z    0.002391   0.044684  -0.016799   0.017077   0.036476
   36  C  8  S   -0.021738  -0.081476   0.091407   0.105562   0.086819
   37  C  8  S    0.052856   0.204652  -0.237151  -0.279939  -0.235778
   38  C  8  X   -0.008558  -0.018955   0.009438   0.004656   0.012478
   39  C  8  Y    0.012360  -0.058142   0.058537   0.069988  -0.011508
   40  C  8  Z    0.023238   0.016563  -0.004431   0.025297  -0.028165
   41  C  9  S   -0.127576  -0.035783   0.022121  -0.008434   0.070160
   42  C  9  S    0.295681   0.099395  -0.063386   0.023595  -0.207153
   43  C  9  X    0.018188  -0.014170  -0.018074  -0.043153   0.024138
   44  C  9  Y    0.150935  -0.089973   0.042008  -0.024613   0.118979
   45  C  9  Z    0.022116  -0.011122   0.041405   0.091416   0.016796
   46  O 10  S   -0.214500   0.038245  -0.015247   0.006391  -0.049549
   47  O 10  S    0.749435  -0.142740   0.058446  -0.024986   0.198055
   48  O 10  X   -0.021154   0.000153  -0.005711  -0.010156   0.006861
   49  O 10  Y   -0.162905   0.006501   0.001528  -0.004245   0.023784
   50  O 10  Z   -0.024199   0.001816   0.007834   0.023615   0.002232
   51  H 11  S    0.000184   0.028663   0.060142  -0.048105   0.070725
   52  H 12  S    0.000421   0.037026   0.059998  -0.057541   0.064849
   53  H 13  S    0.000305   0.028969   0.087687  -0.042350  -0.008026
   54  H 14  S    0.003449   0.031841   0.071675  -0.011792  -0.082261
   55  H 15  S    0.001280   0.025205   0.068264  -0.006603  -0.078877
   56  H 16  S    0.008816   0.040059   0.010982   0.089839  -0.070807
   57  H 17  S    0.001521   0.051072  -0.000180   0.088595   0.040577
   58  H 18  S    0.000819   0.055679  -0.016047   0.008940   0.119163
   59  H 19  S    0.001621   0.049429  -0.055373  -0.078131   0.014409
   60  H 20  S    0.008800   0.035082  -0.052323  -0.075083  -0.064712

                     16         17         18         19         20
                   -0.8551    -0.7742    -0.7531    -0.7105    -0.6555
                     A          A          A          A          A   
    1  C  1  S   -0.132767   0.035915  -0.009393   0.068970  -0.004020
    2  C  1  S    0.385124  -0.111599   0.033941  -0.220759   0.011415
    3  C  1  X   -0.050468  -0.037361   0.054741  -0.057475   0.009044
    4  C  1  Y   -0.017985   0.021870  -0.023041   0.048542   0.144052
    5  C  1  Z   -0.018717   0.086187  -0.043419   0.181798  -0.025882
    6  C  2  S   -0.000765  -0.055310   0.046529  -0.115134   0.004077
    7  C  2  S    0.002104   0.165152  -0.140816   0.355133  -0.015580
    8  C  2  X    0.023468  -0.015550   0.015069  -0.050420   0.066919
    9  C  2  Y   -0.163033  -0.007315   0.043303  -0.080810   0.068782
   10  C  2  Z   -0.103673   0.041118  -0.025570   0.115398  -0.098277
   11  C  3  S    0.132075   0.014105  -0.036882   0.067816  -0.001479
   12  C  3  S   -0.383218  -0.048142   0.114106  -0.217447   0.003347
   13  C  3  X    0.052232  -0.044320   0.010388  -0.025202   0.037780
   14  C  3  Y   -0.013854  -0.080611   0.083812  -0.187355  -0.035646
   15  C  3  Z   -0.002347  -0.007831  -0.033820   0.022865  -0.124449
   16  C  4  S   -0.062491   0.081794   0.041314  -0.015615   0.028200
   17  C  4  S    0.180552  -0.253433  -0.120979   0.049849  -0.097400
   18  C  4  X    0.065536  -0.000917   0.014819   0.067617   0.034779
   19  C  4  Y    0.018729  -0.140962   0.130715   0.086120  -0.139958
   20  C  4  Z   -0.008569  -0.023872  -0.145973  -0.059633  -0.176084
   21  C  5  S    0.006582  -0.095475   0.057846   0.047448  -0.026670
   22  C  5  S   -0.018940   0.283241  -0.175555  -0.145189   0.080800
   23  C  5  X   -0.009399  -0.012696   0.037963   0.047006   0.001679
   24  C  5  Y    0.079152  -0.102752  -0.084553   0.033435   0.105533
   25  C  5  Z    0.048560  -0.000220  -0.144124  -0.080419  -0.125031
   26  C  6  S    0.071522   0.007666  -0.084282  -0.031666   0.032984
   27  C  6  S   -0.206962  -0.028896   0.260069   0.098548  -0.110870
   28  C  6  X   -0.063612  -0.030979   0.003195   0.068234  -0.019544
   29  C  6  Y    0.002323   0.006189  -0.065000   0.013310   0.292593
   30  C  6  Z    0.003605   0.197719   0.006923  -0.056207   0.031141
   31  C  7  S    0.051987   0.081203   0.082584  -0.019670  -0.026262
   32  C  7  S   -0.150992  -0.246895  -0.244613   0.062704   0.080084
   33  C  7  X    0.005332   0.027564  -0.074806  -0.014090  -0.063179
   34  C  7  Y    0.066885   0.135263  -0.067830  -0.083343   0.088755
   35  C  7  Z   -0.013918   0.031427   0.132705   0.064399   0.125260
   36  C  8  S   -0.036956  -0.088578  -0.001431   0.039502   0.032401
   37  C  8  S    0.106529   0.263397   0.015879  -0.118993  -0.113884
   38  C  8  X   -0.010160   0.024981  -0.050190  -0.029717  -0.098636
   39  C  8  Y    0.057186   0.115098   0.166984  -0.025587  -0.167473
   40  C  8  Z    0.041781   0.009368   0.160188   0.098702   0.111793
   41  C  9  S   -0.062128  -0.000569  -0.107402  -0.051569   0.014044
   42  C  9  S    0.189355   0.001365   0.343450   0.167443  -0.044904
   43  C  9  X   -0.002517   0.102728  -0.008114  -0.017048  -0.024642
   44  C  9  Y   -0.092095   0.012137  -0.101974  -0.062057  -0.053522
   45  C  9  Z   -0.001849  -0.190582  -0.078471   0.076995  -0.001476
   46  O 10  S    0.036102  -0.001233   0.058971   0.023309  -0.029185
   47  O 10  S   -0.149810   0.005592  -0.259050  -0.104654   0.139451
   48  O 10  X    0.000265   0.051343  -0.011191  -0.013825  -0.000769
   49  O 10  Y   -0.036825   0.009025  -0.106575  -0.065182   0.082972
   50  O 10  Z   -0.001699  -0.094906  -0.048744   0.041471   0.016616
   51  H 11  S    0.143551  -0.053818   0.022767  -0.121329  -0.100319
   52  H 12  S    0.122464  -0.091165   0.032233  -0.183280   0.074184
   53  H 13  S    0.000491   0.085858  -0.083284   0.236817  -0.105115
   54  H 14  S   -0.119896  -0.050024   0.100551  -0.174538   0.063011
   55  H 15  S   -0.142556  -0.032253   0.045625  -0.121698  -0.094230
   56  H 16  S    0.054689  -0.139388  -0.095729   0.001084  -0.195763
   57  H 17  S   -0.009197   0.143515  -0.111058  -0.115407  -0.078733
   58  H 18  S   -0.075670  -0.026963   0.138660   0.039325  -0.260297
   59  H 19  S   -0.060600  -0.142342  -0.155771   0.013230  -0.080852
   60  H 20  S    0.034302   0.139440  -0.022180  -0.111447  -0.195739

                     21         22         23         24         25
                   -0.6059    -0.5917    -0.5868    -0.5546    -0.5419
                     A          A          A          A          A   
    1  C  1  S    0.015486  -0.007153  -0.001107   0.000303   0.004293
    2  C  1  S   -0.055396   0.020230  -0.001448  -0.002761  -0.022785
    3  C  1  X    0.025728  -0.070020  -0.083206  -0.065988  -0.126294
    4  C  1  Y    0.286696  -0.115159  -0.008848  -0.166441  -0.053246
    5  C  1  Z    0.028553  -0.039301   0.151875   0.181627   0.212317
    6  C  2  S   -0.027094   0.005981  -0.004752   0.012598  -0.007390
    7  C  2  S    0.083058  -0.016390   0.014707  -0.041439   0.023984
    8  C  2  X    0.138903  -0.095374   0.039764   0.022997   0.030749
    9  C  2  Y    0.130332  -0.058093  -0.094288  -0.152222  -0.149281
   10  C  2  Z   -0.164285   0.027990  -0.104026  -0.013603  -0.131288
   11  C  3  S    0.014127  -0.009115   0.004511  -0.004199   0.001649
   12  C  3  S   -0.050991   0.029082  -0.011806   0.023750  -0.001115
   13  C  3  X    0.092376  -0.058492   0.088384   0.116354   0.113769
   14  C  3  Y   -0.147654   0.110392   0.101158   0.134852   0.156734
   15  C  3  Z   -0.247713   0.010502  -0.137968  -0.069252  -0.197266
   16  C  4  S   -0.001396   0.054891   0.012398  -0.020958  -0.006524
   17  C  4  S    0.007281  -0.185592  -0.037338   0.071951   0.021693
   18  C  4  X    0.003594   0.071547   0.004956  -0.014460  -0.049301
   19  C  4  Y    0.016362   0.003452   0.230408  -0.173651  -0.025478
   20  C  4  Z    0.004766  -0.133665  -0.086825  -0.191382   0.159974
   21  C  5  S   -0.005293  -0.055770   0.000045  -0.009434   0.017411
   22  C  5  S    0.020350   0.190102   0.001368   0.026243  -0.056436
   23  C  5  X   -0.019263   0.022780   0.031126  -0.045460  -0.003985
   24  C  5  Y   -0.040828  -0.140880  -0.221108   0.201760   0.009824
   25  C  5  Z    0.095771   0.172707  -0.086179  -0.189090   0.205853
   26  C  6  S    0.003944   0.056308  -0.007053  -0.000596   0.005327
   27  C  6  S   -0.012124  -0.196188   0.019381  -0.000012  -0.014082
   28  C  6  X   -0.000091   0.031197  -0.028677  -0.040106   0.079033
   29  C  6  Y   -0.095432   0.023337  -0.072138   0.061370  -0.095018
   30  C  6  Z   -0.035046   0.027851   0.223254   0.039869  -0.160845
   31  C  7  S    0.000678  -0.046279   0.006232   0.007879  -0.019758
   32  C  7  S    0.008246   0.157125  -0.039984  -0.016290   0.065722
   33  C  7  X    0.024821   0.063992   0.086757   0.052855  -0.033008
   34  C  7  Y   -0.165410  -0.094900   0.252807  -0.199488   0.003276
   35  C  7  Z   -0.166021  -0.152415  -0.034357  -0.179310   0.135734
   36  C  8  S    0.014267   0.049973  -0.019938   0.018421  -0.005368
   37  C  8  S   -0.034964  -0.163110   0.053287  -0.052209   0.015783
   38  C  8  X    0.035096  -0.071335   0.030285   0.083160  -0.103898
   39  C  8  Y    0.153916  -0.055025  -0.209129   0.198332  -0.055757
   40  C  8  Z   -0.056435   0.141209  -0.145541  -0.121079   0.199375
   41  C  9  S   -0.033294  -0.086039   0.007147   0.011616   0.020766
   42  C  9  S    0.114062   0.299770  -0.021872  -0.038284  -0.070814
   43  C  9  X   -0.004042  -0.003468  -0.178131  -0.055408   0.043757
   44  C  9  Y    0.058907   0.035198  -0.011510  -0.008790  -0.069608
   45  C  9  Z   -0.011071   0.014672   0.262271  -0.036797  -0.226679
   46  O 10  S    0.034119   0.054703  -0.002423  -0.009641  -0.028593
   47  O 10  S   -0.167654  -0.269514   0.011705   0.049147   0.148080
   48  O 10  X   -0.016447  -0.042326  -0.157758  -0.007355   0.075728
   49  O 10  Y   -0.133401  -0.253799  -0.003478   0.067491   0.189997
   50  O 10  Z   -0.047201  -0.027184   0.253619  -0.072778  -0.172626
   51  H 11  S   -0.248262   0.114607   0.011390   0.134139   0.045216
   52  H 12  S    0.070886  -0.010685  -0.128202  -0.209396  -0.208753
   53  H 13  S   -0.154435   0.069620  -0.027870   0.026903  -0.012759
   54  H 14  S    0.075717   0.058155   0.148391   0.144597   0.234003
   55  H 15  S   -0.255347   0.075889  -0.086282  -0.034617  -0.113124
   56  H 16  S    0.001776  -0.186611  -0.004080  -0.174835   0.127756
   57  H 17  S    0.085400   0.263791   0.044194  -0.210099   0.111396
   58  H 18  S    0.064829  -0.101268   0.048780  -0.053042   0.097978
   59  H 19  S    0.176912   0.230041  -0.071664   0.212743  -0.076177
   60  H 20  S    0.086689  -0.209360   0.024596   0.169584  -0.176326

                     26         27         28         29         30
                   -0.5155    -0.5059    -0.4865    -0.4784    -0.4506
                     A          A          A          A          A   
    1  C  1  S    0.010037  -0.008341   0.003791  -0.030607   0.007134
    2  C  1  S   -0.036983   0.016852  -0.017679   0.106871  -0.025428
    3  C  1  X   -0.009473  -0.205175   0.002545  -0.059974  -0.008157
    4  C  1  Y   -0.103198   0.081260   0.278417   0.162193  -0.168677
    5  C  1  Z   -0.175235  -0.027113  -0.097510   0.228625  -0.098986
    6  C  2  S   -0.009579  -0.017087  -0.007623   0.007280  -0.002184
    7  C  2  S    0.033798   0.060592   0.032931  -0.032394   0.007427
    8  C  2  X   -0.089111  -0.117778  -0.153802   0.221439  -0.027368
    9  C  2  Y    0.184199  -0.031779  -0.267504  -0.050959   0.168674
   10  C  2  Z    0.061086  -0.202232   0.020479  -0.220057   0.077631
   11  C  3  S   -0.009812  -0.002788   0.031997  -0.005310  -0.006867
   12  C  3  S    0.026491   0.000181  -0.110499   0.023917   0.022195
   13  C  3  X   -0.071775  -0.169480   0.009210  -0.052401   0.017838
   14  C  3  Y   -0.138482   0.164773   0.268789   0.009315  -0.166120
   15  C  3  Z   -0.122133  -0.089029   0.073748   0.307904  -0.110360
   16  C  4  S   -0.011473   0.008654   0.001380  -0.000439   0.003731
   17  C  4  S    0.035573  -0.043226  -0.004784   0.008558  -0.004616
   18  C  4  X    0.175541   0.219822   0.013180  -0.016526  -0.063424
   19  C  4  Y   -0.068624   0.004666   0.122694   0.048809   0.290437
   20  C  4  Z   -0.190072   0.134325  -0.061094  -0.052645   0.141735
   21  C  5  S   -0.004863  -0.021124  -0.005585   0.007875  -0.000223
   22  C  5  S    0.019167   0.074379   0.022274  -0.028091   0.000992
   23  C  5  X    0.078636   0.235648   0.033392  -0.027465   0.070217
   24  C  5  Y    0.090560   0.061091  -0.110782  -0.066294  -0.284845
   25  C  5  Z    0.107436  -0.078737   0.025390  -0.057931  -0.207515
   26  C  6  S    0.022076  -0.006659  -0.002828   0.011543  -0.004986
   27  C  6  S   -0.082765   0.013669   0.006813  -0.043210   0.007935
   28  C  6  X    0.081659   0.237936   0.027869  -0.066085   0.011776
   29  C  6  Y   -0.265360   0.105169   0.069204  -0.098951   0.218888
   30  C  6  Z   -0.024540   0.052866  -0.013544   0.131221   0.246395
   31  C  7  S    0.019235   0.000844   0.011832   0.002256  -0.003241
   32  C  7  S   -0.072362   0.001847  -0.029905  -0.011451   0.021522
   33  C  7  X    0.100861   0.128569  -0.093509   0.132056   0.056788
   34  C  7  Y    0.008050  -0.103339  -0.132499   0.002092  -0.121126
   35  C  7  Z   -0.079452   0.131888  -0.038124  -0.156183  -0.092023
   36  C  8  S   -0.010092   0.003984  -0.000962   0.003735   0.011142
   37  C  8  S    0.036144  -0.009268   0.014261  -0.015858  -0.035983
   38  C  8  X    0.031264   0.216108  -0.059137   0.004376  -0.012030
   39  C  8  Y   -0.017001   0.050639   0.168921  -0.030028   0.112744
   40  C  8  Z    0.062581   0.004708  -0.026951   0.153622   0.105355
   41  C  9  S    0.006451   0.008445   0.007550  -0.014749   0.000391
   42  C  9  S   -0.014391  -0.034191  -0.021320   0.057983   0.001222
   43  C  9  X    0.010626   0.262142  -0.172018   0.115137   0.007490
   44  C  9  Y   -0.310788   0.019741  -0.179794  -0.182108  -0.128343
   45  C  9  Z    0.080072   0.140239  -0.056411  -0.033118  -0.129833
   46  O 10  S   -0.055820   0.010137  -0.034585  -0.021373  -0.018406
   47  O 10  S    0.297729  -0.054557   0.190117   0.118996   0.105854
   48  O 10  X    0.073747   0.195502  -0.103518   0.164669   0.082366
   49  O 10  Y    0.351190  -0.105845   0.309861   0.162898   0.224615
   50  O 10  Z    0.171238   0.095648   0.034297  -0.014526  -0.141633
   51  H 11  S    0.102483  -0.021393  -0.270455  -0.110497   0.166833
   52  H 12  S    0.067956   0.011907   0.217597  -0.091792  -0.010585
   53  H 13  S    0.007962  -0.038693   0.239622  -0.251628  -0.016235
   54  H 14  S    0.006198   0.094666   0.075934  -0.244123   0.002129
   55  H 15  S   -0.108639   0.081476   0.114235   0.277128  -0.157080
   56  H 16  S   -0.181319   0.080184  -0.000136  -0.013950   0.256671
   57  H 17  S    0.030929  -0.085986   0.092968  -0.022018  -0.011324
   58  H 18  S    0.223610  -0.057169  -0.065362   0.048732  -0.233686
   59  H 19  S    0.052555  -0.023619   0.049650   0.163852   0.174330
   60  H 20  S   -0.015923   0.106106   0.092473  -0.129317  -0.036895

                     31         32         33         34         35
                   -0.4448    -0.4166    -0.3569    -0.3144    -0.2713
                     A          A          A          A          A   
    1  C  1  S   -0.009256   0.002062  -0.005579   0.000063  -0.027368
    2  C  1  S    0.038087   0.006930   0.006579  -0.000800   0.131947
    3  C  1  X    0.003297   0.263617  -0.073192  -0.000107   0.365371
    4  C  1  Y   -0.110089   0.005306   0.048249   0.010515   0.004833
    5  C  1  Z    0.165286   0.034559  -0.139662  -0.030684   0.150592
    6  C  2  S    0.002712   0.020841   0.012988   0.003301   0.006681
    7  C  2  S   -0.015300  -0.073917  -0.049635  -0.010563  -0.028481
    8  C  2  X    0.144746   0.046859   0.093839  -0.015747   0.080984
    9  C  2  Y    0.080451  -0.120722  -0.090450  -0.009431   0.024775
   10  C  2  Z   -0.053576   0.208464   0.094746   0.008493   0.111414
   11  C  3  S   -0.014570  -0.005334  -0.011654   0.002307   0.012027
   12  C  3  S    0.052071   0.021590   0.066464  -0.010735  -0.071803
   13  C  3  X   -0.022486   0.146269   0.327853   0.003177  -0.231609
   14  C  3  Y   -0.105677   0.100593  -0.056971   0.016422   0.065014
   15  C  3  Z    0.065895  -0.091141   0.122132  -0.022672  -0.097937
   16  C  4  S    0.023867   0.008951  -0.015911   0.031806   0.012637
   17  C  4  S   -0.087597  -0.029129   0.085702  -0.144740  -0.069425
   18  C  4  X    0.015922  -0.037072  -0.289732  -0.147041   0.311889
   19  C  4  Y    0.103357   0.036969   0.019767  -0.194527   0.040311
   20  C  4  Z   -0.074283  -0.002446  -0.160441   0.226371   0.076240
   21  C  5  S    0.004588   0.017133   0.011827  -0.007268   0.001794
   22  C  5  S   -0.007901  -0.063439  -0.041915   0.023172  -0.003320
   23  C  5  X   -0.014572  -0.162257  -0.050280  -0.109240   0.042377
   24  C  5  Y   -0.109315  -0.071154  -0.063159   0.070522   0.056639
   25  C  5  Z    0.212348   0.015112   0.036357  -0.077919   0.057085
   26  C  6  S   -0.002384  -0.006503   0.018154   0.001427  -0.005946
   27  C  6  S    0.020128   0.037498  -0.078845  -0.009166   0.050754
   28  C  6  X    0.025518  -0.254711   0.242713  -0.028075  -0.263506
   29  C  6  Y    0.213714   0.031368  -0.005109  -0.022105   0.017373
   30  C  6  Z   -0.272284  -0.038379  -0.012367   0.091382  -0.056529
   31  C  7  S   -0.009982   0.003076  -0.009215   0.012250   0.006447
   32  C  7  S    0.052042  -0.008950   0.036368  -0.044358  -0.025663
   33  C  7  X   -0.144484  -0.013099   0.368106   0.151412   0.306872
   34  C  7  Y   -0.225726   0.007982  -0.084786  -0.077261  -0.015546
   35  C  7  Z    0.209423  -0.040594   0.251120  -0.020097   0.086450
   36  C  8  S   -0.005670  -0.000669   0.006424  -0.037096   0.005677
   37  C  8  S    0.038530   0.002651  -0.027147   0.165543  -0.027922
   38  C  8  X    0.070285   0.090383   0.377404   0.015387   0.351675
   39  C  8  Y    0.193182  -0.016523  -0.079338   0.102663  -0.092250
   40  C  8  Z   -0.048644   0.067065   0.115672   0.313291   0.125872
   41  C  9  S   -0.002637  -0.002337   0.006963  -0.001059  -0.008991
   42  C  9  S    0.011143   0.012203  -0.025252   0.002708   0.037525
   43  C  9  X   -0.047447   0.388373  -0.037681   0.043310  -0.145445
   44  C  9  Y   -0.111140  -0.106091   0.036267   0.022050  -0.011878
   45  C  9  Z    0.134004   0.172556   0.006548  -0.189096  -0.021695
   46  O 10  S   -0.011049  -0.002742   0.000768   0.000307   0.000256
   47  O 10  S    0.064256   0.016513  -0.006724  -0.001537   0.001264
   48  O 10  X   -0.086437   0.441787  -0.005130  -0.411346  -0.291892
   49  O 10  Y    0.097624  -0.048475  -0.005801  -0.046848   0.099946
   50  O 10  Z    0.316255   0.219054  -0.127020   0.664581  -0.266206
   51  H 11  S    0.110264  -0.078809  -0.008508  -0.010928  -0.072761
   52  H 12  S   -0.182878   0.044928   0.124343   0.027609  -0.031374
   53  H 13  S   -0.165002   0.173354   0.060642   0.018774   0.025346
   54  H 14  S   -0.103154   0.160313  -0.040497   0.041130   0.070014
   55  H 15  S    0.042259  -0.086601  -0.069375  -0.016658   0.049155
   56  H 16  S   -0.070673   0.000673  -0.103384   0.110596   0.042282
   57  H 17  S    0.248113   0.050443   0.069599  -0.113886   0.009495
   58  H 18  S   -0.189680  -0.068148   0.011991   0.009136  -0.080108
   59  H 19  S   -0.095379   0.022825  -0.058542   0.116488   0.009544
   60  H 20  S    0.204059  -0.017927   0.035752  -0.120129   0.000850

                     36         37         38         39         40
                   -0.2234     0.2066     0.2158     0.3540     0.3893
                     A          A          A          A          A   
    1  C  1  S   -0.025330  -0.000773  -0.041496   0.031296  -0.030418
    2  C  1  S    0.090324   0.030373   0.208664  -0.134952   0.160072
    3  C  1  X    0.181909   0.144617   0.388170  -0.364909   0.351423
    4  C  1  Y    0.003586  -0.032807  -0.012020   0.031775  -0.029476
    5  C  1  Z    0.087202   0.018391   0.140356  -0.237018   0.069936
    6  C  2  S    0.021800  -0.018871  -0.007436  -0.001267  -0.007736
    7  C  2  S   -0.105489   0.106120   0.042334   0.009105   0.057568
    8  C  2  X    0.437120  -0.443309  -0.187227  -0.049777  -0.274758
    9  C  2  Y   -0.131837   0.087185   0.081277   0.004965   0.064255
   10  C  2  Z    0.294005  -0.274171  -0.083245  -0.031757  -0.172734
   11  C  3  S   -0.030099  -0.025562   0.029970  -0.040364  -0.021927
   12  C  3  S    0.113806   0.148916  -0.131452   0.185153   0.121986
   13  C  3  X    0.250410   0.335612  -0.187476   0.464322   0.236070
   14  C  3  Y   -0.053104  -0.004281   0.052050  -0.114701   0.050143
   15  C  3  Z    0.088562   0.123264  -0.054288   0.217457   0.058512
   16  C  4  S    0.032011  -0.009330  -0.022242   0.051574  -0.008538
   17  C  4  S   -0.124021   0.072697   0.097241  -0.250214   0.063511
   18  C  4  X    0.196578  -0.209194  -0.250768   0.523478   0.029816
   19  C  4  Y   -0.012319   0.051859   0.013714   0.024492  -0.033765
   20  C  4  Z    0.103455  -0.066979  -0.087239   0.162874   0.036908
   21  C  5  S   -0.022773  -0.019276  -0.006697   0.002393   0.020666
   22  C  5  S    0.108250   0.109028   0.036743  -0.013806  -0.115240
   23  C  5  X    0.548186   0.590268   0.201030  -0.024817  -0.132016
   24  C  5  Y    0.057788   0.023289   0.055808   0.053599  -0.051844
   25  C  5  Z    0.035119   0.074441   0.062226   0.048263   0.002048
   26  C  6  S    0.030074  -0.019754   0.009683  -0.054028   0.006625
   27  C  6  S   -0.119215   0.111313  -0.018348   0.270711  -0.014470
   28  C  6  X    0.264518  -0.309083   0.077548  -0.517012   0.193042
   29  C  6  Y   -0.026903  -0.003046  -0.009262   0.019534  -0.021156
   30  C  6  Z    0.071787  -0.127588  -0.006633  -0.092492   0.069289
   31  C  7  S    0.008331   0.015288   0.008932   0.001373  -0.001040
   32  C  7  S   -0.034292  -0.073974  -0.041681  -0.008570   0.008079
   33  C  7  X   -0.059184  -0.184130   0.440134   0.385339   0.351660
   34  C  7  Y    0.033853   0.094848  -0.043643  -0.064011  -0.065968
   35  C  7  Z   -0.071259  -0.161956   0.146329   0.160908   0.144346
   36  C  8  S   -0.004770  -0.007524  -0.002871  -0.001391  -0.002298
   37  C  8  S    0.021427   0.033630   0.012880   0.008270   0.012949
   38  C  8  X   -0.168959   0.267533  -0.270091  -0.219362  -0.516274
   39  C  8  Y    0.042081  -0.046051   0.050442   0.037814   0.101412
   40  C  8  Z   -0.040503   0.146080  -0.124813  -0.110665  -0.247706
   41  C  9  S    0.009047   0.018675   0.003287  -0.001801  -0.000290
   42  C  9  S   -0.038360  -0.089599  -0.017804   0.011878   0.003488
   43  C  9  X    0.031827   0.112476  -0.384556  -0.196325   0.544370
   44  C  9  Y    0.032909   0.044697   0.085051   0.044882  -0.102210
   45  C  9  Z   -0.051735  -0.060966  -0.208395  -0.093362   0.250193
   46  O 10  S   -0.000120  -0.002095  -0.000890   0.001454   0.000131
   47  O 10  S   -0.001297   0.009115   0.004916  -0.009510  -0.001458
   48  O 10  X   -0.044669  -0.108524   0.462345   0.157609  -0.390915
   49  O 10  Y   -0.020756  -0.012023  -0.101011  -0.014427   0.079263
   50  O 10  Z    0.081136   0.014919   0.229404   0.071354  -0.177821
   51  H 11  S    0.002611  -0.045345  -0.056292  -0.011608  -0.037148
   52  H 12  S    0.072392  -0.131244  -0.060008  -0.066561  -0.071161
   53  H 13  S    0.047280  -0.016295  -0.004411  -0.002190   0.010088
   54  H 14  S    0.061106  -0.129617  -0.042992   0.032329  -0.079896
   55  H 15  S   -0.003281  -0.076683   0.006512   0.001216  -0.040056
   56  H 16  S    0.005971  -0.067701   0.003275   0.019268  -0.091490
   57  H 17  S   -0.061237  -0.020253  -0.006373  -0.002887   0.030511
   58  H 18  S    0.005247  -0.054969  -0.067979  -0.057435  -0.085998
   59  H 19  S    0.023180   0.030837   0.008468   0.006654  -0.017273
   60  H 20  S   -0.024851  -0.041758  -0.021778  -0.013646  -0.016419

                     41         42         43         44         45
                    0.5164     0.5729     0.5898     0.6220     0.6226
                     A          A          A          A          A   
    1  C  1  S   -0.010737   0.024638  -0.003127  -0.007055   0.036578
    2  C  1  S    0.038192  -0.158944   0.018588   0.047814  -0.230865
    3  C  1  X    0.444641   0.112239  -0.052211  -0.019771   0.105472
    4  C  1  Y   -0.043651   0.216131  -0.155630   0.064844   0.341751
    5  C  1  Z    0.133755  -0.077321   0.151918  -0.033774  -0.170963
    6  C  2  S   -0.031042   0.020545  -0.013938  -0.000105   0.042455
    7  C  2  S    0.194096  -0.127535   0.087464  -0.002329  -0.268368
    8  C  2  X   -0.282218   0.129276  -0.111165  -0.032298   0.285085
    9  C  2  Y    0.100104   0.128541  -0.101445   0.027762   0.243542
   10  C  2  Z   -0.213582  -0.177978   0.130940   0.022748  -0.322089
   11  C  3  S   -0.011553   0.013083  -0.025852   0.028207   0.030578
   12  C  3  S    0.042400  -0.084416   0.165657  -0.177295  -0.192260
   13  C  3  X    0.445182   0.128154  -0.112573   0.011038   0.153211
   14  C  3  Y   -0.005263   0.052560   0.029478  -0.102202   0.054620
   15  C  3  Z    0.173639  -0.240789   0.130767   0.109341  -0.370255
   16  C  4  S    0.043541  -0.000371  -0.047280   0.111224  -0.011736
   17  C  4  S   -0.230795  -0.020223   0.290206  -0.653841   0.084303
   18  C  4  X    0.464279   0.134234   0.012498  -0.364316  -0.116982
   19  C  4  Y   -0.110325   0.120169   0.123520  -0.359558  -0.027362
   20  C  4  Z    0.190640  -0.373657   0.138148   0.255631   0.235236
   21  C  5  S    0.010224   0.043984  -0.019029   0.001888  -0.050095
   22  C  5  S   -0.078677  -0.274816   0.121492  -0.016500   0.315110
   23  C  5  X   -0.396482   0.033007   0.024973   0.109508   0.011873
   24  C  5  Y   -0.027480   0.211148  -0.085384   0.089801  -0.199645
   25  C  5  Z   -0.024275  -0.263327   0.176597   0.144865   0.267170
   26  C  6  S    0.040466   0.055004   0.065037  -0.015283   0.006669
   27  C  6  S   -0.214407  -0.347514  -0.377452   0.089005  -0.024941
   28  C  6  X    0.450489  -0.075380  -0.240687  -0.040597  -0.114821
   29  C  6  Y    0.000967   0.338632  -0.193679   0.214005  -0.285572
   30  C  6  Z    0.242273  -0.014513   0.357894   0.023099   0.149090
   31  C  7  S   -0.015761   0.050702  -0.021212   0.050778  -0.048956
   32  C  7  S    0.089773  -0.309365   0.113616  -0.340058   0.292610
   33  C  7  X   -0.314355  -0.030891  -0.214975  -0.010840  -0.070214
   34  C  7  Y    0.015352   0.169150  -0.106496   0.187174  -0.177660
   35  C  7  Z   -0.057773   0.244305   0.549500   0.175376   0.080502
   36  C  8  S    0.014617  -0.010928  -0.023346   0.111008  -0.001184
   37  C  8  S   -0.085141   0.041958   0.120253  -0.683021   0.011845
   38  C  8  X    0.255987  -0.134039  -0.251938  -0.118744  -0.046226
   39  C  8  Y   -0.062340   0.051996   0.084177  -0.390916   0.002726
   40  C  8  Z    0.138531   0.233183   0.521557   0.001980   0.090786
   41  C  9  S   -0.017967   0.090921   0.088990  -0.128935  -0.016937
   42  C  9  S    0.102651  -0.535979  -0.525764   0.758287   0.097624
   43  C  9  X   -0.337678   0.056919  -0.125983  -0.082875  -0.092932
   44  C  9  Y    0.016338   0.119147   0.147841  -0.424130  -0.025547
   45  C  9  Z   -0.074914  -0.037427   0.329687   0.181831   0.164884
   46  O 10  S    0.002664  -0.018920  -0.013331   0.007232   0.003778
   47  O 10  S   -0.015598   0.118519   0.079615  -0.029612  -0.024879
   48  O 10  X    0.179419  -0.041066   0.032561   0.008665   0.030974
   49  O 10  Y   -0.006901  -0.170168  -0.107452   0.060532   0.040270
   50  O 10  Z    0.055938  -0.010699  -0.110153  -0.073653  -0.044922
   51  H 11  S    0.068711   0.308843  -0.174634   0.027759   0.463413
   52  H 12  S   -0.002537  -0.125821   0.219852  -0.081406  -0.240082
   53  H 13  S   -0.041706   0.347684  -0.258630  -0.021012   0.652642
   54  H 14  S   -0.011512  -0.215560   0.043297   0.220617  -0.281532
   55  H 15  S    0.066217   0.273372  -0.251715   0.040574   0.439327
   56  H 16  S    0.033036   0.311282  -0.348680   0.240042  -0.264994
   57  H 17  S   -0.021401   0.518174  -0.274324  -0.063511  -0.516265
   58  H 18  S    0.053457   0.538232   0.087322   0.169222  -0.237383
   59  H 19  S   -0.004003   0.482979   0.424605   0.397636  -0.143616
   60  H 20  S    0.085953   0.165491   0.390726   0.657449   0.091778

                     46         47         48         49         50
                    0.6647     0.6977     0.7143     0.7259     0.7411
                     A          A          A          A          A   
    1  C  1  S    0.034164  -0.116204  -0.027378   0.126736  -0.066131
    2  C  1  S   -0.214247   0.738981   0.165829  -0.810916   0.417308
    3  C  1  X    0.005277  -0.114666  -0.051212  -0.006827   0.045567
    4  C  1  Y   -0.239636  -0.286032   0.309890  -0.397911  -0.195975
    5  C  1  Z    0.138742  -0.295263   0.078939   0.362700  -0.279540
    6  C  2  S   -0.010871   0.070672   0.062688  -0.013939  -0.006810
    7  C  2  S    0.063819  -0.431104  -0.389178   0.086351   0.068774
    8  C  2  X   -0.032636   0.070117   0.001252   0.047700   0.041875
    9  C  2  Y   -0.131259  -0.074373   0.084483  -0.303664  -0.059908
   10  C  2  Z   -0.056243  -0.067506   0.034999  -0.191916   0.015293
   11  C  3  S    0.001776  -0.088352  -0.122493  -0.090369  -0.067100
   12  C  3  S   -0.011963   0.553250   0.785423   0.581942   0.422456
   13  C  3  X    0.072014  -0.031335  -0.228352   0.088925   0.032434
   14  C  3  Y   -0.111746   0.032554   0.386347   0.119622   0.249416
   15  C  3  Z   -0.190110  -0.278270   0.161472  -0.502414  -0.127102
   16  C  4  S    0.013475  -0.024009  -0.045524   0.024777   0.130888
   17  C  4  S   -0.092075   0.152964   0.301271  -0.138889  -0.818046
   18  C  4  X    0.098075   0.141498   0.082821  -0.046855  -0.119523
   19  C  4  Y   -0.285978  -0.213283   0.054397   0.040475   0.158832
   20  C  4  Z   -0.459961  -0.064593   0.184067   0.203213  -0.091139
   21  C  5  S    0.000230   0.055745   0.046954   0.002013  -0.146773
   22  C  5  S   -0.008759  -0.351844  -0.307053  -0.009470   0.935616
   23  C  5  X    0.127035  -0.037050   0.031460  -0.022427  -0.122871
   24  C  5  Y   -0.221992  -0.110402   0.031641   0.111627   0.082475
   25  C  5  Z   -0.209994   0.001792   0.021278   0.131250  -0.055780
   26  C  6  S    0.080044  -0.080030   0.031109  -0.051433   0.115949
   27  C  6  S   -0.478451   0.510207  -0.191911   0.304195  -0.728520
   28  C  6  X   -0.241237   0.223967  -0.115441   0.017188  -0.063675
   29  C  6  Y   -0.407348  -0.282976   0.215049   0.182933   0.180452
   30  C  6  Z    0.114299  -0.029977   0.276484  -0.066949  -0.209207
   31  C  7  S   -0.120711   0.062233  -0.086081   0.052547  -0.025929
   32  C  7  S    0.743769  -0.411566   0.548493  -0.322801   0.160100
   33  C  7  X   -0.011915  -0.105570   0.018658   0.096300   0.001943
   34  C  7  Y   -0.284836   0.090745   0.075519   0.142064  -0.187663
   35  C  7  Z    0.078549   0.007933  -0.025345   0.001223  -0.040912
   36  C  8  S    0.091435  -0.004397   0.106801  -0.003170  -0.043159
   37  C  8  S   -0.551998   0.014368  -0.682577   0.016325   0.287634
   38  C  8  X   -0.070973  -0.040336   0.047348   0.027740  -0.004477
   39  C  8  Y   -0.145123  -0.211129   0.003074  -0.019627   0.108857
   40  C  8  Z    0.007310   0.128511  -0.092767  -0.106598  -0.011178
   41  C  9  S    0.004982   0.028091  -0.048273  -0.040462  -0.024134
   42  C  9  S   -0.042279  -0.182828   0.291182   0.243477   0.144175
   43  C  9  X    0.126527  -0.082253   0.098016  -0.075047  -0.127330
   44  C  9  Y   -0.157926  -0.108780   0.000127  -0.043106   0.000160
   45  C  9  Z   -0.291645  -0.074142  -0.379121   0.026194   0.310289
   46  O 10  S   -0.017013  -0.020893   0.011217   0.007709   0.010182
   47  O 10  S    0.120915   0.143609  -0.074004  -0.051168  -0.069593
   48  O 10  X   -0.072669   0.000193  -0.017286   0.026373   0.045040
   49  O 10  Y   -0.159539  -0.178673   0.081796   0.069126   0.092781
   50  O 10  Z    0.059064  -0.005092   0.131722  -0.000686  -0.085128
   51  H 11  S   -0.113570  -0.652357   0.181138   0.043265  -0.387481
   52  H 12  S    0.322076  -0.425341  -0.131605   0.860887  -0.321814
   53  H 13  S   -0.083047   0.284974   0.226316  -0.043788  -0.021707
   54  H 14  S   -0.089047  -0.457816  -0.428890  -0.737022  -0.416733
   55  H 15  S    0.220617  -0.090803  -0.733901   0.088755  -0.202187
   56  H 16  S    0.582020   0.083114  -0.284815  -0.115032   0.402964
   57  H 17  S    0.041727   0.116438   0.148769  -0.031025  -0.392892
   58  H 18  S   -0.089720  -0.534633   0.326365  -0.000258   0.514278
   59  H 19  S   -0.467446   0.290079  -0.261605   0.172215  -0.188207
   60  H 20  S    0.421120   0.197751   0.257057  -0.081815  -0.185844

                     51         52         53         54         55
                    0.7565     0.7867     0.8227     0.8762     0.8827
                     A          A          A          A          A   
    1  C  1  S    0.067983   0.037224  -0.025644   0.010358  -0.023207
    2  C  1  S   -0.439222  -0.232887   0.159318  -0.072301   0.168941
    3  C  1  X    0.064997   0.204755  -0.128068  -0.026752  -0.158260
    4  C  1  Y    0.474523  -0.041055   0.026950  -0.127466   0.023912
    5  C  1  Z    0.141125  -0.517582   0.396334   0.092839   0.155865
    6  C  2  S   -0.024364  -0.164888   0.110753   0.012950  -0.001706
    7  C  2  S    0.160462   1.091474  -0.740906  -0.087951   0.011871
    8  C  2  X    0.001997   0.184489  -0.148379   0.078341  -0.027734
    9  C  2  Y    0.069345  -0.087504   0.065108   0.111737   0.336784
   10  C  2  Z    0.084714   0.206821  -0.133399  -0.157499   0.195031
   11  C  3  S   -0.056198   0.053202  -0.020873   0.006600   0.023560
   12  C  3  S    0.361605  -0.334209   0.131066  -0.052201  -0.169681
   13  C  3  X   -0.131254   0.123756  -0.090681  -0.002827   0.112617
   14  C  3  Y    0.435438   0.477814  -0.393796  -0.037771   0.216360
   15  C  3  Z    0.329951  -0.151674   0.145185   0.106378  -0.015825
   16  C  4  S    0.054546  -0.053854  -0.012730   0.032770   0.083092
   17  C  4  S   -0.344915   0.339177   0.083119  -0.232953  -0.576706
   18  C  4  X    0.044707   0.101028   0.191992  -0.099040  -0.064419
   19  C  4  Y   -0.198666   0.317076   0.385614   0.517551   0.320925
   20  C  4  Z   -0.269431  -0.044927  -0.268113   0.258837  -0.464143
   21  C  5  S   -0.033126  -0.046210  -0.118249  -0.058206  -0.003678
[...]
 18   H            X -0.07323311 -0.02110033 -0.02088687 -0.04924363 -0.01255151
                   Y -0.07884163 -0.00356251  0.02936145 -0.05322554 -0.01195895
                   Z  0.04404819  0.00422545 -0.00800019  0.06504238  0.01013878
 19   H            X -0.02230438 -0.00124728  0.00867680 -0.08489403 -0.01763992
                   Y -0.05804377 -0.00314798  0.02115050 -0.06806337 -0.01101279
                   Z  0.03503363  0.00175680 -0.00378929  0.14498541  0.03085357
 20   H            X  0.00466630  0.00076569  0.00089889 -0.04934392 -0.02252212
                   Y  0.00937073  0.00053879 -0.00159476  0.00056078  0.05736545
                   Z -0.01382623  0.00099316  0.01660874  0.13031680  0.07557485

 TRANS. SAYVETZ    X -0.00000091  0.00000127 -0.00000147 -0.00000067 -0.00000025
                   Y -0.00000169 -0.00000040 -0.00000157 -0.00000010 -0.00000072
                   Z -0.00000019 -0.00000067  0.00000038  0.00000072  0.00000057
               TOTAL  0.00000193  0.00000149  0.00000218  0.00000098  0.00000095

   ROT. SAYVETZ    X  0.00000936  0.00016879 -0.00003764 -0.00003318  0.00001781
                   Y  0.00005856 -0.00017937 -0.00009318  0.00003088 -0.00000569
                   Z -0.00008309  0.00000918  0.00007547 -0.00001237  0.00000793
               TOTAL  0.00010208  0.00024647  0.00012568  0.00004698  0.00002031

                           51          52          53          54          55
       FREQUENCY:      3630.06     3634.31     3686.10     3693.07     3695.66  
        SYMMETRY:         A           A           A           A           A   
    REDUCED MASS:      1.06267     1.06462     1.09101     1.09411     1.09590
    IR INTENSITY:      0.09879     0.07248     0.19354     0.04540     0.14146

  1   C            X -0.00027325  0.00064223 -0.00115386  0.00003687 -0.00325031
                   Y -0.02918599  0.01551644  0.00184091  0.00057731  0.00120830
                   Z -0.05238427  0.02902533  0.00607007 -0.00191925  0.01045559
  2   C            X  0.00186958  0.00146250  0.00847491 -0.00483791  0.03852034
                   Y  0.00657287 -0.00425564  0.00904077 -0.00548732  0.04145779
                   Z -0.00616182 -0.00572555 -0.01258962  0.00703585 -0.05737828
  3   C            X -0.00571443 -0.01190261 -0.00015264  0.00042978 -0.00197696
                   Y  0.03075509  0.05972309 -0.00631563  0.00242319 -0.01013737
                   Z -0.00004783 -0.00132499  0.00177533  0.00055972  0.00372514
  4   C            X  0.00013172  0.00076848  0.00461288  0.00418010 -0.00127285
                   Y -0.00093314 -0.00122875 -0.02310272 -0.02374872  0.00488709
                   Z -0.00308231 -0.00081407 -0.05241812 -0.04807780  0.00897250
  5   C            X -0.00063858 -0.00026489 -0.00697277  0.00048328  0.00015184
                   Y -0.00224759 -0.00033238 -0.02286486  0.00859703  0.00112441
                   Z  0.00288983  0.00120958  0.03276163 -0.00322323 -0.00086555
  6   C            X -0.00044854 -0.00072940 -0.00738152  0.01227827  0.00355917
                   Y  0.00321852  0.00069192  0.03823444 -0.05956961 -0.01928626
                   Z  0.00030255 -0.00084071  0.00178233 -0.00563104 -0.00261971
  7   C            X  0.00059730 -0.00008702  0.00171015 -0.00404405 -0.00198527
                   Y -0.00026479 -0.00008969 -0.00471995  0.00971840  0.00435137
                   Z -0.00025793 -0.00003163 -0.00589645  0.01309742  0.00630336
  8   C            X -0.00015963 -0.00008201 -0.00164808  0.00379653  0.00162484
                   Y -0.00030974 -0.00017585 -0.00140172  0.00370376  0.00153555
                   Z  0.00038371  0.00004254  0.00259604 -0.00622975 -0.00272825
  9   C            X  0.00022829  0.00026878 -0.00063556 -0.00088737  0.00010036
                   Y -0.00011371  0.00006174 -0.00049658 -0.00063912  0.00011332
                   Z  0.00024984  0.00013247  0.00098582  0.00152418 -0.00006674
 10   O            X -0.00000953  0.00001045  0.00002389  0.00009464 -0.00002550
                   Y -0.00000752 -0.00004121  0.00003563  0.00016043 -0.00003437
                   Z -0.00001256  0.00001086 -0.00006506 -0.00015063  0.00000035
 11   H            X  0.14332059 -0.07649963 -0.00777528  0.00071408 -0.00548189
                   Y  0.58027682 -0.31122768 -0.04000691  0.00537804 -0.03056906
                   Z  0.06134853 -0.03252649 -0.00404286  0.00076013 -0.00346256
 12   H            X -0.11851199  0.06353426  0.01422584 -0.00433522  0.01728609
                   Y -0.27091863  0.14697911  0.02781409 -0.01023760  0.04363405
                   Z  0.51466889 -0.28071877 -0.05183786  0.01879836 -0.07826812
 13   H            X -0.06451338 -0.01901124 -0.08793882  0.05120247 -0.40877459
                   Y -0.07332431 -0.02473993 -0.10165055  0.05881249 -0.46893301
                   Z  0.10389524  0.02961755  0.14202644 -0.08209285  0.65469775
 14   H            X -0.06791449 -0.12905091  0.01615116 -0.00331965  0.01917350
                   Y -0.19268044 -0.37266417  0.03929694 -0.00864538  0.05441980
                   Z  0.24468609  0.47136123 -0.04965108  0.01113531 -0.07277313
 15   H            X  0.14376309  0.27249835 -0.01552282  0.00512596 -0.01031883
                   Y -0.14327038 -0.27166131  0.01750840 -0.00592637  0.01296734
                   Z -0.23417556 -0.44507421  0.02895175 -0.01001018  0.02035212
 16   H            X -0.00063778 -0.00007663 -0.04146897 -0.03914779  0.00810636
                   Y  0.01561761  0.00481737  0.26958492  0.25010451 -0.04695947
                   Z  0.03596960  0.01096126  0.59387245  0.54708145 -0.10202482
 17   H            X  0.00748033  0.00237226  0.07429212 -0.01353416 -0.00345010
                   Y  0.02540171  0.00794576  0.27606610 -0.05162573 -0.01304403
                   Z -0.03477837 -0.01106129 -0.37870442  0.06829471  0.01772945
 18   H            X  0.00962070  0.00357888  0.09372388 -0.14420969 -0.04492513
                   Y -0.03690466 -0.01307257 -0.43512166  0.67273429  0.21397094
                   Z -0.00203743 -0.00050573 -0.03102395  0.04984244  0.01658492
 19   H            X -0.00222009 -0.00019424 -0.02432196  0.05338716  0.02480271
                   Y  0.00329516  0.00068696  0.04220470 -0.09185625 -0.04280041
                   Z  0.00692854  0.00079608  0.07367602 -0.15975165 -0.07446882
 20   H            X  0.00224424  0.00084571  0.01572190 -0.04354634 -0.01836291
                   Y  0.00342561  0.00117357  0.02025011 -0.05418538 -0.02283876
                   Z -0.00442232 -0.00107836 -0.02536136  0.06870574  0.02886356

 TRANS. SAYVETZ    X  0.00000007  0.00000004  0.00000142 -0.00000073 -0.00000033
                   Y -0.00000049 -0.00000010 -0.00000069  0.00000007 -0.00000058
                   Z -0.00000112 -0.00000010  0.00000010 -0.00000011 -0.00000070
               TOTAL  0.00000123  0.00000015  0.00000159  0.00000074  0.00000097

   ROT. SAYVETZ    X -0.00001683  0.00001239  0.00000500  0.00001357  0.00000423
                   Y  0.00002039  0.00003152  0.00001882  0.00001849 -0.00000974
                   Z  0.00002366 -0.00000765  0.00000857 -0.00003714 -0.00000736
               TOTAL  0.00003548  0.00003472  0.00002127  0.00004365  0.00001292

                           56          57          58          59          60
       FREQUENCY:      3704.05     3712.81     3736.29     3777.39     3780.00  
        SYMMETRY:         A           A           A           A           A   
    REDUCED MASS:      1.09133     1.10022     1.10602     1.11642     1.11674
    IR INTENSITY:      0.55018     0.10236     0.06844     0.00322     0.01482

  1   C            X -0.00016135 -0.00013301  0.00007767 -0.02255073  0.00809162
                   Y  0.00085222 -0.00163834  0.00034925 -0.07549367  0.02751647
                   Z  0.00023288  0.00114478 -0.00022898  0.04015926 -0.01402875
  2   C            X  0.00272360  0.00441116 -0.00003933 -0.00131539  0.00275246
                   Y  0.00268570  0.00440579 -0.00004459 -0.00027292  0.00314796
                   Z -0.00390466 -0.00604495  0.00003369  0.00210898 -0.00336744
  3   C            X  0.00002236 -0.00030838  0.00006201  0.01278049  0.03563567
                   Y -0.00034880 -0.00033109  0.00017117  0.00225083  0.00503468
                   Z  0.00047691  0.00180634 -0.00028375 -0.02919465 -0.08078914
  4   C            X  0.00075804  0.00295159 -0.00035875  0.00004764 -0.00027961
                   Y -0.00470013 -0.01559906  0.00118364 -0.00011064 -0.00048743
                   Z -0.00805438 -0.02393181  0.00216967  0.00003975 -0.00070010
  5   C            X  0.00184040  0.00862323 -0.00061497 -0.00007990  0.00004243
                   Y  0.01004855  0.04194902 -0.00285551 -0.00015878  0.00045716
                   Z -0.01166894 -0.05875241  0.00400681  0.00042009 -0.00063093
  6   C            X  0.00215565 -0.00647745  0.00010017  0.00043306 -0.00039493
                   Y -0.01628347  0.03475263 -0.00547855 -0.00056093  0.00071123
                   Z  0.00101941  0.00684514  0.00058871 -0.00022568  0.00010169
  7   C            X  0.01939371 -0.00215119  0.01130585 -0.00005261  0.00001506
                   Y -0.03208733  0.00102247 -0.02967914 -0.00036172  0.00031288
                   Z -0.05677910  0.00520476 -0.03759120 -0.00062221  0.00037981
  8   C            X -0.01882839  0.00478172  0.03244081 -0.00011259  0.00005371
                   Y -0.01998679  0.00619483  0.04737067 -0.00002340 -0.00016960
                   Z  0.03073901 -0.00737914 -0.04787097  0.00001728  0.00002372
  9   C            X  0.00061598 -0.00055202 -0.00066469  0.00003684  0.00015849
                   Y -0.00013431 -0.00063301  0.00117639  0.00005216 -0.00003012
                   Z -0.00141766  0.00084640  0.00197898  0.00007672  0.00012255
 10   O            X -0.00009736  0.00006253  0.00003278  0.00000844  0.00002313
                   Y -0.00008650  0.00017044 -0.00028051 -0.00001231 -0.00001573
                   Z  0.00016115 -0.00006053 -0.00020927 -0.00000649  0.00001170
 11   H            X -0.00153083  0.00213221 -0.00071337  0.14992491 -0.05447047
                   Y -0.00725644  0.01010496 -0.00239064  0.60315512 -0.21856235
                   Z -0.00077135  0.00098771 -0.00017111  0.06790931 -0.02423441
 12   H            X -0.00030025  0.00239739 -0.00035169  0.12060863 -0.04330889
                   Y  0.00046467  0.00733166 -0.00204117  0.28262252 -0.10057139
                   Z -0.00097576 -0.01248252  0.00344848 -0.54559514  0.19442268
 13   H            X -0.02798863 -0.04434647  0.00013817  0.01399183 -0.03054194
                   Y -0.03196712 -0.05066988  0.00035377  0.01135037 -0.03432595
                   Z  0.04444713  0.07071652 -0.00034998 -0.02207279  0.04454497
 14   H            X  0.00128846  0.00258027 -0.00099253 -0.04508422 -0.12428525
                   Y  0.00302335  0.00777129 -0.00199673 -0.13528201 -0.37030694
                   Z -0.00440554 -0.01109824  0.00263923  0.17035992  0.46555193
 15   H            X -0.00011510  0.00402074 -0.00027107 -0.10740012 -0.29830809
                   Y -0.00009904 -0.00451989  0.00034287  0.10840961  0.29985866
                   Z  0.00003661 -0.00737501  0.00044923  0.17385148  0.48249449
 16   H            X -0.00675032 -0.02035644  0.00144121 -0.00000984 -0.00030744
                   Y  0.04162697  0.12596770 -0.00965137  0.00098832  0.00563724
                   Z  0.09169738  0.27216346 -0.02080432  0.00191698  0.01225979
 17   H            X -0.02622118 -0.12081878  0.00735744  0.00074308 -0.00136885
                   Y -0.10327554 -0.46409434  0.02981737  0.00252789 -0.00502594
                   Z  0.14034428  0.63738634 -0.04055023 -0.00368872  0.00674086
 18   H            X -0.03698326  0.07844298 -0.01032423 -0.00308916  0.00215845
                   Y  0.17769152 -0.37162975  0.05260235  0.01148149 -0.00913445
                   Z  0.01112505 -0.02923404  0.00314285  0.00071808 -0.00055303
 19   H            X -0.21949554  0.01813600 -0.14216374 -0.00192947  0.00137182
                   Y  0.36466906 -0.02819643  0.23885816  0.00341949 -0.00223157
                   Z  0.64335223 -0.05177317  0.41725238  0.00528474 -0.00351036
 20   H            X  0.21819546 -0.05589104 -0.35840375  0.00086114  0.00008728
                   Y  0.27036185 -0.06971574 -0.44662724  0.00071340  0.00039376
                   Z -0.33972795  0.08732286  0.55743657 -0.00074461 -0.00045314

 TRANS. SAYVETZ    X -0.00000036 -0.00000119 -0.00000000  0.00000008 -0.00000007
                   Y  0.00000008  0.00000011 -0.00000062 -0.00000001 -0.00000003
                   Z -0.00000010  0.00000054 -0.00000012  0.00000007  0.00000002
               TOTAL  0.00000038  0.00000132  0.00000064  0.00000011  0.00000007

   ROT. SAYVETZ    X  0.00000007  0.00000174  0.00000510 -0.00001680 -0.00000924
                   Y  0.00002321  0.00000763  0.00000712 -0.00000064 -0.00000444
                   Z -0.00002103  0.00001477 -0.00000820  0.00002598  0.00000928
               TOTAL  0.00003132  0.00001672  0.00001199  0.00003094  0.00001383

 REFERENCE ON SAYVETZ CONDITIONS - A. SAYVETZ, J.CHEM.PHYS., 7, 383-389(1939).

 NOTE - THE MODES J,K ARE ORTHONORMALIZED ACCORDING TO
 SUM ON I   M(I) * (X(I,J)*X(I,K) + Y(I,J)*Y(I,K) + Z(I,J)*Z(I,K)) = DELTA(J,K)

  MODE FREQ(CM**-1)  SYMMETRY  RED. MASS  IR INTENS.
     1    1060.397    A        9.324438    0.064303
     2       0.157    A        6.601386    0.000027
     3       0.047    A        6.692884    0.000001
     4       0.021    A        6.692515    0.000002
     5       1.760    A        4.840517    0.013483
     6       5.168    A        4.923081    0.003764
     7       6.407    A        4.662850    0.011212
     8     104.189    A        4.138219    0.029766
     9     203.675    A        3.551096    0.016636
    10     265.241    A        4.167046    0.030703
    11     381.404    A        5.277610    0.035431
    12     437.606    A        2.308944    0.075499
    13     465.597    A        3.411429    0.109555
    14     493.073    A        3.991815    0.077152
    15     506.427    A        4.788719    0.105068
    16     552.673    A        1.961700    0.248551
    17     575.844    A        2.545965    0.264887
    18     610.980    A        4.900692    0.016020
    19     677.211    A        5.711064    0.076542
    20     840.264    A        3.287083    0.033019
    21     851.576    A        4.187193    0.032926
    22     926.858    A        1.667092    2.620547
    23     938.107    A        1.761196    0.121327
    24     964.344    A        1.772389    0.902878
    25    1004.123    A        1.456876    0.150603
    26    1040.436    A        1.586859    0.061759
    27    1092.356    A        1.590385    0.228087
    28    1119.738    A        2.732618    0.001841
    29    1166.735    A        2.141448    0.057045
    30    1209.138    A        1.282482    0.003083
    31    1214.209    A        1.507825    0.090143
    32    1240.836    A        1.141205    0.082692
    33    1270.216    A        1.287341    0.408313
    34    1301.604    A        1.134646    0.247838
    35    1318.492    A        1.219188    0.093667
    36    1341.280    A        1.231589    0.051300
    37    1365.523    A        1.155984    0.010785
    38    1386.055    A        1.275960    0.048801
    39    1418.713    A        1.831367    0.674077
    40    1471.053    A        1.323700    0.088113
    41    1488.626    A        1.670809    0.001709
    42    1599.388    A        1.598240    0.164864
    43    1637.161    A        1.712717    0.166639
    44    1668.011    A        1.524674    0.029359
    45    1718.728    A        2.486183    0.476339
    46    1758.374    A        1.912285    0.035474
    47    1813.502    A        1.256196    0.224258
    48    1856.575    A        2.349681    0.040065
    49    2009.736    A        7.078586    0.061993
    50    2080.632    A       10.638298    1.818715
    51    3630.063    A        1.062667    0.098790
    52    3634.307    A        1.064620    0.072481
    53    3686.096    A        1.091014    0.193545
    54    3693.066    A        1.094114    0.045396
    55    3695.659    A        1.095900    0.141457
    56    3704.052    A        1.091328    0.550181
    57    3712.811    A        1.100223    0.102356
    58    3736.285    A        1.106024    0.068437
    59    3777.386    A        1.116417    0.003220
    60    3779.999    A        1.116742    0.014819

     -------------------------------
     THERMOCHEMISTRY AT T=  298.15 K
     -------------------------------

 USING IDEAL GAS, RIGID ROTOR, HARMONIC NORMAL MODE APPROXIMATIONS.
 P=  1.01325E+05 PASCAL.
 ALL FREQUENCIES ARE SCALED BY   1.00000
 THE MOMENTS OF INERTIA ARE (IN AMU*BOHR**2)
            852.39532          1312.41934          1651.72510
 THE ROTATIONAL SYMMETRY NUMBER IS  1.0
 THE ROTATIONAL CONSTANTS ARE (IN GHZ)
      2.11532     1.37387     1.09164
   1 IMAGINARY FREQUENCY VIBRATION(S) IS(ARE) EXCLUDED
     FROM THE FOLLOWING THERMOCHEMICAL ANALYSIS.
      8 -     60 VIBRATIONAL MODES ARE USED IN THERMOCHEMISTRY.
 THE HARMONIC ZERO POINT ENERGY IS (SCALED BY   1.000)
        0.192359 HARTREE/MOLECULE    42218.016897 CM**-1/MOLECULE 
      120.707489 KCAL/MOL              505.040132 KJ/MOL

               Q               LN Q
 ELEC.     1.00000E+00       0.000000
 TRANS.    6.10192E+07      17.926699
 ROT.      4.86594E+05      13.095186
 VIB.      1.44404E+01       2.670029
 TOT.      4.28758E+14      33.691915

              E         H         G         CV        CP        S
           KJ/MOL    KJ/MOL    KJ/MOL   J/MOL-K   J/MOL-K   J/MOL-K
 ELEC.      0.000     0.000     0.000     0.000     0.000     0.000
 TRANS.     3.718     6.197   -44.439    12.472    20.786   169.836
 ROT.       3.718     3.718   -32.462    12.472    12.472   121.350
 VIB.     516.151   516.151   498.421    93.000    93.000    59.465
 TOTAL    523.587   526.066   421.520   117.943   126.258   350.651
 VIB. THERMAL CORRECTION E(T)-E(0) = H(T)-H(0) =     11110.496 J/MOL

              E         H         G         CV        CP        S
         KCAL/MOL  KCAL/MOL  KCAL/MOL CAL/MOL-K CAL/MOL-K CAL/MOL-K
 ELEC.      0.000     0.000     0.000     0.000     0.000     0.000
 TRANS.     0.889     1.481   -10.621     2.981     4.968    40.592
 ROT.       0.889     0.889    -7.759     2.981     2.981    29.003
 VIB.     123.363   123.363   119.126    22.228    22.228    14.212
 TOTAL    125.140   125.733   100.746    28.189    30.176    83.808
 VIB. THERMAL CORRECTION E(T)-E(0) = H(T)-H(0) =      2655.472 CAL/MOL
 ......END OF NORMAL COORDINATE ANALYSIS......
 STEP CPU TIME =     0.01 TOTAL CPU TIME =         69.2 (      1.2 MIN)
 TOTAL WALL CLOCK TIME=         69.8 SECONDS, CPU UTILIZATION IS    99.08%
               580000  WORDS OF DYNAMIC MEMORY USED
 EXECUTION OF GAMESS TERMINATED NORMALLY Sat Nov 13 04:42:55 2021
 DDI: 263640 bytes (0.3 MB / 0 MWords) used by master data server.

 ----------------------------------------
 CPU timing information for all processes
 ========================================
 0: 68.408 + 0.751 = 69.160
 ----------------------------------------
 ddikick.x: exited gracefully.
----- accounting info -----
Files used on the master node chemcompute-node-0.novalocal were:
-rw-r--r--. 1 chemcomp chemcomp     1517 Nov 13 04:41 /scratch/305711/341587.F05
-rw-rw-r--. 1 chemcomp chemcomp 17821584 Nov 13 04:42 /scratch/305711/341587.F08
-rw-rw-r--. 1 chemcomp chemcomp 70451200 Nov 13 04:42 /scratch/305711/341587.F10
-rw-rw-r--. 1 chemcomp chemcomp   878880 Nov 13 04:42 /scratch/305711/341587.F18
Sat Nov 13 04:42:59 UTC 2021
0.160u 0.081s 1:13.41 0.3%	0+0k 8+216io 0pf+0w
Finishing Up...
Looking for IR data...
Looking for Raman data...
vibramans not found
Looking for thermodynamics data...
Looking for UV-Vis data...
305711
