----- GAMESS execution script 'rungms' -----
This job is running on host chemcompute-node-0.novalocal
under operating system Linux at Sat Nov 13 04:03:32 UTC 2021
SLURM has assigned the following compute nodes to this run:
chemcompute-node-0
Available scratch disk space (Kbyte units) at beginning of the job is
Filesystem     1K-blocks     Used Available Use% Mounted on
/dev/sda1       62903276 16797100  46106176  27% /
GAMESS temporary binary files will be written to /scratch/305660
GAMESS supplementary output files will be written to /data/slurm/341536
Copying input file 341536.inp to your run's scratch directory...
The generated host list is
chemcompute-node-0.novalocal

 Distributed Data Interface kickoff program.
 Initiating 1 compute processes on 1 nodes to run the following command:
 /data/gamess-2019R1-ddi/gamess.00.x 341536 

          ******************************************************
          *         GAMESS VERSION = 30 JUN 2019 (R1)          *
          *             FROM IOWA STATE UNIVERSITY             *
          * M.W.SCHMIDT, K.K.BALDRIDGE, J.A.BOATZ, S.T.ELBERT, *
          *   M.S.GORDON, J.H.JENSEN, S.KOSEKI, N.MATSUNAGA,   *
          *          K.A.NGUYEN, S.J.SU, T.L.WINDUS,           *
          *       TOGETHER WITH M.DUPUIS, J.A.MONTGOMERY       *
          *         J.COMPUT.CHEM.  14, 1347-1363(1993)        *
          **************** 64 BIT LINUX VERSION ****************

  SINCE 1993, STUDENTS AND POSTDOCS WORKING AT IOWA STATE UNIVERSITY
  AND ALSO IN THEIR VARIOUS JOBS AFTER LEAVING ISU HAVE MADE IMPORTANT
  CONTRIBUTIONS TO THE CODE:
     IVANA ADAMOVIC, CHRISTINE AIKENS, YURI ALEXEEV, POOJA ARORA,
     ANDREY ASADCHEV, ROB BELL, PRADIPTA BANDYOPADHYAY, JONATHAN BENTZ,
     COLLEEN BERTONI, BRETT BODE, KURT BRORSEN, CALEB CARLIN, GALINA CHABAN,
     WEI CHEN, CHEOL HO CHOI, PAUL DAY, ALBERT DEFUSCO, NUWAN DESILVA,
     TIM DUDLEY, DMITRI FEDOROV, ALEX FINDLATER, GRAHAM FLETCHER, 
     MARK FREITAG, KURT GLAESEMANN, ANASTASIA GUNINA,
     DAN KEMP, GRANT MERRILL, NORIYUKI MINEZAWA, JONATHAN MULLIN,
     TAKESHI NAGATA, SEAN NEDD, HEATHER NETZLOFF, BOSILJKA NJEGIC, RYAN OLSON,
     MIKE PAK, BUU PHAM,
     SPENCER PRUITT, LUKE ROSKOP, JIM SHOEMAKER, LYUDMILA SLIPCHENKO,
     TONY SMITH, SAROM SOK LEANG, JIE SONG, TETSUYA TAKETSUGU, SIMON WEBB,
     PENG XU, SOOHAENG YOO, FEDERICO ZAHARIEV

  ADDITIONAL CODE HAS BEEN PROVIDED BY COLLABORATORS IN OTHER GROUPS:
     IOWA STATE UNIVERSITY:
          JOE IVANIC, AARON WEST, LAIMUTIS BYTAUTAS, KLAUS RUEDENBERG
     UNIVERSITY OF TOKYO: KIMIHIKO HIRAO, TAKAHITO NAKAJIMA,
          TAKAO TSUNEDA, MUNEAKI KAMIYA, SUSUMU YANAGISAWA,
          KIYOSHI YAGI, MAHITO CHIBA, SEIKEN TOKURA, NAOAKI KAWAKAMI
     UNIVERSITY OF AARHUS: FRANK JENSEN
     UNIVERSITY OF IOWA: VISVALDAS KAIRYS, HUI LI
     NATIONAL INST. OF STANDARDS AND TECHNOLOGY: WALT STEVENS, DAVID GARMER
     UNIVERSITY OF PISA: BENEDETTA MENNUCCI, JACOPO TOMASI
     UNIVERSITY OF MEMPHIS: HENRY KURTZ, PRAKASHAN KORAMBATH
     UNIVERSITY OF ALBERTA: TOBY ZENG, MARIUSZ KLOBUKOWSKI
     UNIVERSITY OF NEW ENGLAND: MARK SPACKMAN
     MIE UNIVERSITY: HIROAKI UMEDA
     NAT. INST. OF ADVANCED INDUSTRIAL SCIENCE AND TECHNOLOGY: KAZUO KITAURA
     MICHIGAN STATE UNIVERSITY:
          KAROL KOWALSKI, MARTA WLOCH, JEFFREY GOUR, JESSE LUTZ,
          WEI LI, JUN SHEN, J. EMILIANO DEUSTUA, PIOTR PIECUCH
     UNIVERSITY OF MINNESOTA:
          YINAN SHU
     UNIVERSITY OF SILESIA: MONIKA MUSIAL, STANISLAW KUCHARSKI
     FACULTES UNIVERSITAIRES NOTRE-DAME DE LA PAIX:
          OLIVIER QUINET, BENOIT CHAMPAGNE
     UNIVERSITY OF CALIFORNIA - SANTA BARBARA: BERNARD KIRTMAN
     INSTITUTE FOR MOLECULAR SCIENCE:
          KAZUYA ISHIMURA, MICHIO KATOUDA, AND SHIGERU NAGASE
     UNIVERSITY OF NOTRE DAME: ANNA POMOGAEVA, DAN CHIPMAN
     KYUSHU UNIVERSITY:
          HARUYUKI NAKANO,
          FENG LONG GU, JACEK KORCHOWIEC, MARCIN MAKOWSKI, AND YURIKO AOKI,
          HIROTOSHI MORI AND EISAKU MIYOSHI
     PENNSYLVANIA STATE UNIVERSITY:
          TZVETELIN IORDANOV, CHET SWALINA, JONATHAN SKONE,
          SHARON HAMMES-SCHIFFER
     WASEDA UNIVERSITY:
          MASATO KOBAYASHI, TOMOKO AKAMA, TSUGUKI TOUMA,
          TAKESHI YOSHIKAWA, YASUHIRO IKABATA, JUNJI SEINO,
          YUYA NAKAJIMA, HIROMI NAKAI
     NANJING UNIVERSITY: SHUHUA LI
     UNIVERSITY OF NEBRASKA:
          PEIFENG SU, DEJUN SI, NANDUN THELLAMUREGE, YALI WANG, HUI LI
     UNIVERSITY OF ZURICH: ROBERTO PEVERATI, KIM BALDRIDGE
     N. COPERNICUS UNIVERSITY AND JACKSON STATE UNIVERSITY:
          MARIA BARYSZ
     UNIVERSITY OF COPENHAGEN: Jimmy Kromann, CASPER STEINMANN
     TOKYO INSTITUTE OF TECHNOLOGY: HIROYA NAKATA
     NAGOYA UNIVERSITY: YOSHIO NISHIMOTO, STEPHAN IRLE
     MOSCOW STATE UNIVERSITY: VLADIMIR MIRONOV
     A.N.NESMEYANOV INSTITUTE OF ORGANOELEMENT COMPOUNDS OF RUSSIAN ACADEMY OF SCIENCES:
          IGOR S. GERASIMOV

 EXECUTION OF GAMESS BEGUN Sat Nov 13 04:03:32 2021

            ECHO OF THE FIRST FEW INPUT CARDS -
 INPUT CARD>!File created by the GAMESS Input Deck Generator Plugin for Avogadro            
 INPUT CARD> $BASIS GBASIS=STO NGAUSS=3 $END                                                
 INPUT CARD> $CONTRL SCFTYP=RHF RUNTYP=OPTIMIZE NZVAR=1 mult=1  ICHARG=0 $END               
 INPUT CARD> $STATPT hssend=.t. OPTTOL=0.0005 NSTEP=50 $END                                 
 INPUT CARD> $STATPT HESS=calc ihrep=5 $END                                                 
 INPUT CARD> $FORCE nvib=2 $END                                                             
 INPUT CARD> $ZMAT DLC=.t. auto=.t. nonvdw(1)=1,6,3,4 $END                                  
 INPUT CARD> $ZMAT IFZMAT(1)=1,1,6,1,3,4 fvalue(1)=2.00,2.00 $END                           
 INPUT CARD>                                                                                
 INPUT CARD> $DATA                                                                          
 INPUT CARD>Title                                                                           
 INPUT CARD>C1                                                                              
 INPUT CARD>C     6.0    -1.10486    -5.14682    -1.92639                                   
 INPUT CARD>C     6.0    -1.82084    -4.54901    -0.93996                                   
 INPUT CARD>C     6.0    -1.44120    -3.17144    -0.46807                                   
 INPUT CARD>C     6.0     0.49504    -3.28700     0.01250                                   
 INPUT CARD>C     6.0     0.79630    -4.75546    -0.10553                                   
 INPUT CARD>C     6.0     0.81515    -5.26190    -1.36891                                   
 INPUT CARD>C     6.0     1.56649    -4.45026    -2.35658                                   
 INPUT CARD>C     6.0     1.75512    -3.12911    -2.22477                                   
 INPUT CARD>C     6.0     1.19226    -2.43806    -1.03585                                   
 INPUT CARD>O     8.0     1.26767    -1.21371    -0.95382                                   
 INPUT CARD>H     1.0    -1.34751    -6.18142    -2.18223                                   
 INPUT CARD>H     1.0    -0.78746    -4.49548    -2.74838                                   
 INPUT CARD>H     1.0    -2.43589    -5.15311    -0.27756                                   
 INPUT CARD>H     1.0    -1.52293    -2.38203    -1.21940                                   
 INPUT CARD>H     1.0    -1.91828    -2.90449     0.47902                                   
 INPUT CARD>H     1.0     0.58359    -2.87462     1.01997                                   
 INPUT CARD>H     1.0     0.58523    -5.39870     0.74312                                   
 INPUT CARD>H     1.0     0.90007    -6.34765    -1.49185                                   
 INPUT CARD>H     1.0     1.97787    -4.98251    -3.21037                                   
 INPUT CARD>H     1.0     2.29641    -2.52875    -2.94316                                   
 INPUT CARD> $END                                                                           
    1000000 WORDS OF MEMORY AVAILABLE

     BASIS OPTIONS
     -------------
     GBASIS=STO          IGAUSS=       3      POLAR=NONE    
     NDFUNC=       0     NFFUNC=       0     DIFFSP=       F
     NPFUNC=       0      DIFFS=       F     BASNAM=        


     RUN TITLE
     ---------
 Title                                                                           

 THE POINT GROUP OF THE MOLECULE IS C1      
 THE ORDER OF THE PRINCIPAL AXIS IS     0

 ATOM      ATOMIC                      COORDINATES (BOHR)
           CHARGE         X                   Y                   Z
 C           6.0    -2.0878826548       -9.7260795081       -3.6403492455
 C           6.0    -3.4408886675       -8.5963824154       -1.7762668394
 C           6.0    -2.7234730935       -5.9931525865       -0.8845240431
 C           6.0     0.9354899530       -6.2115293216        0.0236215748
 C           6.0     1.5047888040       -8.9865163456       -0.1994227835
 C           6.0     1.5404101389       -9.9435491748       -2.5868648019
 C           6.0     2.9602368625       -8.4097719741       -4.4532904681
 C           6.0     3.3166958756       -5.9131604854       -4.2042056857
 C           6.0     2.2530447061       -4.6072653416       -1.9574726644
 O           8.0     2.3955489429       -2.2935793286       -1.8024584416
 H           1.0    -2.5464246657      -11.6811900150       -4.1238167422
 H           1.0    -1.4880836263       -8.4952253833       -5.1936851101
 H           1.0    -4.6031646362       -9.7379658846       -0.5245123452
 H           1.0    -2.8779203985       -4.5013839945       -2.3043318694
 H           1.0    -3.6250235677       -5.4886902341        0.9052165426
 H           1.0     1.1028251892       -5.4322441188        1.9274638157
 H           1.0     1.1059243398      -10.2020636899        1.4042931760
 H           1.0     1.7008856698      -11.9953191660       -2.8191877148
 H           1.0     3.7376323393       -9.4155786311       -6.0667196192
 H           1.0     4.3395856555       -4.7786445915       -5.5617659380

          INTERNUCLEAR DISTANCES (ANGS.)
          ------------------------------

                1 C          2 C          3 C          4 C          5 C     

   1 C       0.0000000    1.3575892 *  2.4782954 *  3.1269642    2.6614100 *
   2 C       1.3575892 *  0.0000000    1.5048275 *  2.8041308 *  2.7546900 *
   3 C       2.4782954 *  1.5048275 *  0.0000000    1.9983310 *  2.7653139 *
   4 C       3.1269642    2.8041308 *  1.9983310 *  0.0000000    1.5036833 *
   5 C       2.6614100 *  2.7546900 *  2.7653139 *  1.5036833 *  0.0000000  
   6 C       2.0026147 *  2.7641732 *  3.2050977    2.4312536 *  1.3612369 *
   7 C       2.7939882 *  3.6729509    3.7746589    2.8484591 *  2.3986592 *
   8 C       3.5127866    4.0563953    3.6474989    2.5725683 *  2.8382263 *
   9 C       3.6615847    3.6802278    2.7920122 *  1.5185034 *  2.5283636 *
  10 O       4.6951193    4.5456916    3.3773712    2.4143866 *  3.6722988  
  11 H       1.0930372 *  2.1052407 *  3.4651265    4.0730207    3.3078643  
  12 H       1.0957436 *  2.0835361 *  2.7166655 *  3.2753150    3.0920125  
  13 H       2.1190377 *  1.0871969 *  2.2254703 *  3.4866678    3.2610998  
  14 H       2.8842124 *  2.2051393 *  1.0928608 *  2.5315512 *  3.5003863  
  15 H       3.3875793    2.1742688 *  1.0935479 *  2.4875828 *  3.3371744  
  16 H       4.0859263    3.5250803    2.5302450 *  1.0921969 *  2.2021705 *
  17 H       3.1695633    3.0567800    3.2456258    2.2363400 *  1.0855943 *
  18 H       2.3770911 *  3.3080265    4.0765158    3.4343408    2.1136983 *
  19 H       3.3434752    4.4466708    4.7423858    3.9319753    3.3298184  
  20 H       4.4109805    5.0045987    4.5286697    3.5434169    3.9064961  

                6 C          7 C          8 C          9 C         10 O     

   1 C       2.0026147 *  2.7939882 *  3.5127866    3.6615847    4.6951193  
   2 C       2.7641732 *  3.6729509    4.0563953    3.6802278    4.5456916  
   3 C       3.2050977    3.7746589    3.6474989    2.7920122 *  3.3773712  
   4 C       2.4312536 *  2.8484591 *  2.5725683 *  1.5185034 *  2.4143866 *
   5 C       1.3612369 *  2.3986592 *  2.8382263 *  2.5283636 *  3.6722988  
   6 C       0.0000000    1.4828228 *  2.4829082 *  2.8683119 *  4.0944983  
   7 C       1.4828228 *  0.0000000    1.3410416 *  2.4358417 *  3.5400967  
   8 C       2.4829082 *  1.3410416 *  0.0000000    1.4858978 *  2.3498252 *
   9 C       2.8683119 *  2.4358417 *  1.4858978 *  0.0000000    1.2294098 *
  10 O       4.0944983    3.5400967    2.3498252 *  1.2294098 *  0.0000000  
  11 H       2.4867860 *  3.3939223    4.3525531    4.6666222    5.7468513  
  12 H       2.2491545 *  2.3867620 *  2.9335725 *  3.3294185    4.2677886  
  13 H       3.4310554    4.5645775    5.0450736    4.5945590    5.4490877  
  14 H       3.7124955    3.8878361    3.5092035    2.7219638 *  3.0369315  
  15 H       4.0551038    4.7511740    4.5667058    3.4911097    3.8809850  
  16 H       3.3851844    3.8535469    3.4591307    2.1880264 *  2.6687889 *
  17 H       2.1289077 *  3.3868200    3.9151057    3.5069373    4.5672170  
  18 H       1.0959830 *  2.1890551 *  3.4098801    3.9469235    5.1751276  
  19 H       2.1956665 *  1.0869595 *  2.1109516 *  3.4380148    4.4497478  
  20 H       3.4846095    2.1375360 *  1.0814394 *  2.2057206 *  2.5971349 *

               11 H         12 H         13 H         14 H         15 H     

   1 C       1.0930372 *  1.0957436 *  2.1190377 *  2.8842124 *  3.3875793  
   2 C       2.1052407 *  2.0835361 *  1.0871969 *  2.2051393 *  2.1742688 *
   3 C       3.4651265    2.7166655 *  2.2254703 *  1.0928608 *  1.0935479 *
   4 C       4.0730207    3.2753150    3.4866678    2.5315512 *  2.4875828 *
   5 C       3.3078643    3.0920125    3.2610998    3.5003863    3.3371744  
   6 C       2.4867860 *  2.2491545 *  3.4310554    3.7124955    4.0551038  
   7 C       3.3939223    2.3867620 *  4.5645775    3.8878361    4.7511740  
   8 C       4.3525531    2.9335725 *  5.0450736    3.5092035    4.5667058  
   9 C       4.6666222    3.3294185    4.5945590    2.7219638 *  3.4911097  
  10 O       5.7468513    4.2677886    5.4490877    3.0369315    3.8809850  
  11 H       0.0000000    1.8645577 *  2.4227588 *  3.9234141    4.2598474  
  12 H       1.8645577 *  0.0000000    3.0421621    2.7102337 *  3.7717521  
  13 H       2.4227588 *  3.0421621    0.0000000    3.0658511    2.4282968 *
  14 H       3.9234141    2.7102337 *  3.0658511    0.0000000    1.8204111 *
  15 H       4.2598474    3.7717521    2.4282968 *  1.8204111 *  0.0000000  
  16 H       4.9918091    4.3252083    3.9990449    3.1136553    2.5598579 *
  17 H       3.5924653    3.8588413    3.1983227    4.1708658    3.5437825  
  18 H       2.3570899 *  2.8030624 *  3.7456715    4.6552444    4.8664953  
  19 H       3.6813869    2.8456428 *  5.3020521    4.7939606    5.7541073  
  20 H       5.2152819    3.6628159    6.0321930    4.1928789    5.4420684  

               16 H         17 H         18 H         19 H         20 H     

   1 C       4.0859263    3.1695633    2.3770911 *  3.3434752    4.4109805  
   2 C       3.5250803    3.0567800    3.3080265    4.4466708    5.0045987  
   3 C       2.5302450 *  3.2456258    4.0765158    4.7423858    4.5286697  
   4 C       1.0921969 *  2.2363400 *  3.4343408    3.9319753    3.5434169  
   5 C       2.2021705 *  1.0855943 *  2.1136983 *  3.3298184    3.9064961  
   6 C       3.3851844    2.1289077 *  1.0959830 *  2.1956665 *  3.4846095  
   7 C       3.8535469    3.3868200    2.1890551 *  1.0869595 *  2.1375360 *
   8 C       3.4591307    3.9151057    3.4098801    2.1109516 *  1.0814394 *
   9 C       2.1880264 *  3.5069373    3.9469235    3.4380148    2.2057206 *
  10 O       2.6687889 *  4.5672170    5.1751276    4.4497478    2.5971349 *
  11 H       4.9918091    3.5924653    2.3570899 *  3.6813869    5.2152819  
  12 H       4.3252083    3.8588413    2.8030624 *  2.8456428 *  3.6628159  
  13 H       3.9990449    3.1983227    3.7456715    5.3020521    6.0321930  
  14 H       3.1136553    4.1708658    4.6552444    4.7939606    4.1928789  
  15 H       2.5598579 *  3.5437825    4.8664953    5.7541073    5.4420684  
  16 H       0.0000000    2.5392181 *  4.2978293    4.9277777    4.3312559  
  17 H       2.5392181 *  0.0000000    2.4484120 *  4.2122136    4.9752799  
  18 H       4.2978293    2.4484120 *  0.0000000    2.4451117 *  4.3174140  
  19 H       4.9277777    4.2122136    2.4451117 *  0.0000000    2.4887360 *
  20 H       4.3312559    4.9752799    4.3174140    2.4887360 *  0.0000000  

  * ... LESS THAN  3.000


     ATOMIC BASIS SET
     ----------------
 THE CONTRACTED PRIMITIVE FUNCTIONS HAVE BEEN UNNORMALIZED
 THE CONTRACTED BASIS FUNCTIONS ARE NOW NORMALIZED TO UNITY

  SHELL TYPE  PRIMITIVE        EXPONENT          CONTRACTION COEFFICIENT(S)

 C         

      1   S       1            71.6168373    0.154328967295
      1   S       2            13.0450963    0.535328142282
      1   S       3             3.5305122    0.444634542185

      2   L       4             2.9412494   -0.099967229187    0.155916274999
      2   L       5             0.6834831    0.399512826089    0.607683718598
      2   L       6             0.2222899    0.700115468880    0.391957393099

 C         

      3   S       7            71.6168373    0.154328967295
      3   S       8            13.0450963    0.535328142282
      3   S       9             3.5305122    0.444634542185

      4   L      10             2.9412494   -0.099967229187    0.155916274999
      4   L      11             0.6834831    0.399512826089    0.607683718598
      4   L      12             0.2222899    0.700115468880    0.391957393099

 C         

      5   S      13            71.6168373    0.154328967295
      5   S      14            13.0450963    0.535328142282
      5   S      15             3.5305122    0.444634542185

      6   L      16             2.9412494   -0.099967229187    0.155916274999
      6   L      17             0.6834831    0.399512826089    0.607683718598
      6   L      18             0.2222899    0.700115468880    0.391957393099

 C         

      7   S      19            71.6168373    0.154328967295
      7   S      20            13.0450963    0.535328142282
      7   S      21             3.5305122    0.444634542185

      8   L      22             2.9412494   -0.099967229187    0.155916274999
      8   L      23             0.6834831    0.399512826089    0.607683718598
      8   L      24             0.2222899    0.700115468880    0.391957393099

 C         

      9   S      25            71.6168373    0.154328967295
      9   S      26            13.0450963    0.535328142282
      9   S      27             3.5305122    0.444634542185

     10   L      28             2.9412494   -0.099967229187    0.155916274999
     10   L      29             0.6834831    0.399512826089    0.607683718598
     10   L      30             0.2222899    0.700115468880    0.391957393099

 C         

     11   S      31            71.6168373    0.154328967295
     11   S      32            13.0450963    0.535328142282
     11   S      33             3.5305122    0.444634542185

     12   L      34             2.9412494   -0.099967229187    0.155916274999
     12   L      35             0.6834831    0.399512826089    0.607683718598
     12   L      36             0.2222899    0.700115468880    0.391957393099

 C         

     13   S      37            71.6168373    0.154328967295
     13   S      38            13.0450963    0.535328142282
     13   S      39             3.5305122    0.444634542185

     14   L      40             2.9412494   -0.099967229187    0.155916274999
     14   L      41             0.6834831    0.399512826089    0.607683718598
     14   L      42             0.2222899    0.700115468880    0.391957393099

 C         

     15   S      43            71.6168373    0.154328967295
     15   S      44            13.0450963    0.535328142282
     15   S      45             3.5305122    0.444634542185

     16   L      46             2.9412494   -0.099967229187    0.155916274999
     16   L      47             0.6834831    0.399512826089    0.607683718598
     16   L      48             0.2222899    0.700115468880    0.391957393099

 C         

     17   S      49            71.6168373    0.154328967295
     17   S      50            13.0450963    0.535328142282
     17   S      51             3.5305122    0.444634542185

     18   L      52             2.9412494   -0.099967229187    0.155916274999
     18   L      53             0.6834831    0.399512826089    0.607683718598
     18   L      54             0.2222899    0.700115468880    0.391957393099

 O         

     19   S      55           130.7093214    0.154328967295
     19   S      56            23.8088661    0.535328142282
     19   S      57             6.4436083    0.444634542185

     20   L      58             5.0331513   -0.099967229187    0.155916274999
     20   L      59             1.1695961    0.399512826089    0.607683718598
     20   L      60             0.3803890    0.700115468880    0.391957393099

 H         

     21   S      61             3.4252509    0.154328967295
     21   S      62             0.6239137    0.535328142282
     21   S      63             0.1688554    0.444634542185

 H         

     22   S      64             3.4252509    0.154328967295
     22   S      65             0.6239137    0.535328142282
     22   S      66             0.1688554    0.444634542185

 H         

     23   S      67             3.4252509    0.154328967295
     23   S      68             0.6239137    0.535328142282
     23   S      69             0.1688554    0.444634542185

 H         

     24   S      70             3.4252509    0.154328967295
     24   S      71             0.6239137    0.535328142282
     24   S      72             0.1688554    0.444634542185

 H         

     25   S      73             3.4252509    0.154328967295
     25   S      74             0.6239137    0.535328142282
     25   S      75             0.1688554    0.444634542185

 H         

     26   S      76             3.4252509    0.154328967295
     26   S      77             0.6239137    0.535328142282
     26   S      78             0.1688554    0.444634542185

 H         

     27   S      79             3.4252509    0.154328967295
     27   S      80             0.6239137    0.535328142282
     27   S      81             0.1688554    0.444634542185

 H         

     28   S      82             3.4252509    0.154328967295
     28   S      83             0.6239137    0.535328142282
     28   S      84             0.1688554    0.444634542185

 H         

     29   S      85             3.4252509    0.154328967295
     29   S      86             0.6239137    0.535328142282
     29   S      87             0.1688554    0.444634542185

 H         

     30   S      88             3.4252509    0.154328967295
     30   S      89             0.6239137    0.535328142282
     30   S      90             0.1688554    0.444634542185

 TOTAL NUMBER OF BASIS SET SHELLS             =   30
 NUMBER OF CARTESIAN GAUSSIAN BASIS FUNCTIONS =   60
 NUMBER OF ELECTRONS                          =   72
 CHARGE OF MOLECULE                           =    0
 SPIN MULTIPLICITY                            =    1
 NUMBER OF OCCUPIED ORBITALS (ALPHA)          =   36
 NUMBER OF OCCUPIED ORBITALS (BETA )          =   36
 TOTAL NUMBER OF ATOMS                        =   20
 THE NUCLEAR REPULSION ENERGY IS      505.2830951933

     $CONTRL OPTIONS
     ---------------
 SCFTYP=RHF          RUNTYP=OPTIMIZE     EXETYP=RUN     
 MPLEVL=       0     CITYP =NONE         CCTYP =NONE         VBTYP =NONE    
 DFTTYP=NONE         TDDFT =NONE    
 MULT  =       1     ICHARG=       0     NZVAR =       1     COORD =UNIQUE  
 PP    =NONE         RELWFN=NONE         LOCAL =NONE         NUMGRD=       F
 ISPHER=      -1     NOSYM =       0     MAXIT =      30     UNITS =ANGS    
 PLTORB=       F     MOLPLT=       F     AIMPAC=       F     FRIEND=        
 NPRINT=       7     IREST =       0     GEOM  =INPUT   
 NORMF =       0     NORMP =       0     ITOL  =      20     ICUT  =       9
 INTTYP=BEST         GRDTYP=BEST         QMTTOL= 1.0E-06

     $SYSTEM OPTIONS
     ---------------
  REPLICATED MEMORY=     1000000 WORDS (ON EVERY NODE).
 DISTRIBUTED MEMDDI=           0 MILLION WORDS IN AGGREGATE,
 MEMDDI DISTRIBUTED OVER   1 PROCESSORS IS           0 WORDS/PROCESSOR.
 TOTAL MEMORY REQUESTED ON EACH PROCESSOR=     1000000 WORDS.
 TIMLIM=      525600.00 MINUTES, OR     365.0 DAYS.
 PARALL= F  BALTYP=  DLB     KDIAG=    0  COREFL= F
 MXSEQ2=     300 MXSEQ3=     150  mem10=         0

          ----------------
          PROPERTIES INPUT
          ----------------

     MOMENTS            FIELD           POTENTIAL          DENSITY
 IEMOM =       1   IEFLD =       0   IEPOT =       0   IEDEN =       0
 WHERE =COMASS     WHERE =NUCLEI     WHERE =NUCLEI     WHERE =NUCLEI  
 OUTPUT=BOTH       OUTPUT=BOTH       OUTPUT=BOTH       OUTPUT=BOTH    
 IEMINT=       0   IEFINT=       0                     IEDINT=       0
                                                       MORB  =       0
          EXTRAPOLATION IN EFFECT
          SOSCF IN EFFECT
 ORBITAL PRINTING OPTION: NPREO=     1    60     2     1

     -------------------------------
     INTEGRAL TRANSFORMATION OPTIONS
     -------------------------------
     NWORD  =            0
     CUTOFF = 1.0E-09     MPTRAN =       0
     DIRTRF =       F     AOINTS =DUP     

          ----------------------
          INTEGRAL INPUT OPTIONS
          ----------------------
 NOPK  =       1 NORDER=       0 SCHWRZ=       T


 -----------------------------------------------
  STATISTICS ON AUTOMATIC COORDINATE GENERATION 
 -----------------------------------------------
  NUMBER OF USER SPECIFIED BONDS                             2
  NUMBER OF BONDS                                           21
  NUMBER OF ANGLES                                          39
  NUMBER OF TORSIONS                                        62
  NUMBER OF EXTRA COORD.                                     0
  NUMBER OF EXTRA COORD. FOR CONSTRAINTS                     0
  NUMBER OF CONSTRAINED COORD.                               2

  TOTAL NUMBER OF PRIMITIVES                               122
 -----------------------------------------------

   --- ENCODED Z MATRIX ---
 COORD  TYPE   I   J   K   L   M   N
    1      1    1   6
    2      1    3   4
    3      1    1   2
    4      1    1  12
    5      1    1  11
    6      1    2  13
    7      1    2   3
    8      1    3  14
    9      1    3  15
   10      1    4   9
   11      1    4   5
   12      1    4  16
   13      1    5   6
   14      1    5  17
   15      1    6   7
   16      1    6  18
   17      1    7   8
   18      1    7  19
   19      1    8  20
   20      1    8   9
   21      1    9  10
   22      2    1   2  13
   23      2    1   6   7
   24      2    1   6   5
   25      2    1   6  18
   26      2    1   2   3
   27      2    2   1  12
   28      2    2   1  11
   29      2    2   3  15
   30      2    2   3   4
   31      2    2   1   6
   32      2    2   3  14
   33      2    3   2  13
   34      2    3   4  16
   35      2    3   4   5
   36      2    3   4   9
   37      2    4   5  17
   38      2    4   5   6
   39      2    4   9  10
   40      2    4   9   8
   41      2    4   3  15
   42      2    4   3  14
   43      2    5   6   7
   44      2    5   4  16
   45      2    5   4   9
   46      2    5   6  18
   47      2    6   5  17
   48      2    6   1  12
   49      2    6   1  11
   50      2    6   7  19
   51      2    6   7   8
   52      2    7   8  20
   53      2    7   8   9
   54      2    7   6  18
   55      2    8   9  10
   56      2    8   7  19
   57      2    9   4  16
   58      2    9   8  20
   59      2   11   1  12
   60      2   14   3  15
   61      3    1   6   5  17
   62      3    1   6   5   4
   63      3    1   2   3  15
   64      3    1   2   3   4
   65      3    1   2   3  14
   66      3    1   6   7   8
   67      3    1   6   7  19
   68      3    2   3   4   9
   69      3    2   1   6  18
   70      3    2   1   6   5
   71      3    2   1   6   7
   72      3    2   3   4  16
   73      3    2   3   4   5
   74      3    3   4   9  10
   75      3    3   4   9   8
   76      3    3   4   5  17
   77      3    3   4   5   6
   78      3    3   2   1  11
   79      3    3   2   1   6
   80      3    3   2   1  12
   81      3    4   3   2  13
   82      3    4   9   8  20
   83      3    4   9   8   7
   84      3    4   5   6  18
   85      3    4   5   6   7
   86      3    5   4   3  15
   87      3    5   4   3  14
   88      3    5   6   1  11
   89      3    5   6   7  19
   90      3    5   6   7   8
   91      3    5   6   1  12
   92      3    5   4   9   8
   93      3    5   4   9  10
   94      3    6   5   4  16
   95      3    6   5   4   9
   96      3    6   7   8   9
   97      3    6   7   8  20
   98      3    6   1   2  13
   99      3    7   8   9  10
  100      3    7   6   1  11
  101      3    7   6   1  12
  102      3    7   6   5  17
  103      3    8   7   6  18
  104      3    8   9   4  16
  105      3    9   4   5  17
  106      3    9   8   7  19
  107      3    9   4   3  15
  108      3    9   4   3  14
  109      3   10   9   8  20
  110      3   10   9   4  16
  111      3   11   1   2  13
  112      3   11   1   6  18
  113      3   12   1   6  18
  114      3   12   1   2  13
  115      3   13   2   3  15
  116      3   13   2   3  14
  117      3   14   3   4  16
  118      3   15   3   4  16
  119      3   16   4   5  17
  120      3   17   5   6  18
  121      3   18   6   7  19
  122      3   19   7   8  20

          INDEP./SYM. INTERNAL COORDINATES
          --------------------------------
 CRD  1=   1.0000 (  1)
 CRD  2=   1.0000 (  2)
 CRD  3=   0.1198 (  5) -0.1209 (  9) -0.2835 ( 10)  0.2865 ( 15)  0.2388 ( 17)
          -0.1618 ( 20)  0.1199 ( 24) -0.1363 ( 25)  0.1456 ( 30) -0.1243 ( 31)
           0.1439 ( 34) -0.1329 ( 35) -0.1463 ( 39) -0.1321 ( 41) -0.1570 ( 43)
           0.1629 ( 45)  0.1518 ( 49)  0.1010 ( 50)  0.1780 ( 52)  0.1509 ( 54)
           0.1359 ( 55) -0.1457 ( 57) -0.1817 ( 58) -0.1120 ( 61) -0.1106 ( 62)
           0.1833 ( 68)  0.1626 ( 71) -0.1132 ( 76) -0.1078 ( 77) -0.1043 ( 79)
           0.1283 (100)  0.1324 (101)  0.1339 (107)  0.1155 (108)
 CRD  4=  -0.1972 (  3)  0.1176 (  6) -0.1616 (  7)  0.1583 ( 10)  0.1168 ( 15)
          -0.1851 ( 17) -0.2379 ( 20)  0.1585 ( 22) -0.3489 ( 26) -0.1066 ( 29)
           0.2473 ( 30)  0.2173 ( 31)  0.1896 ( 33)  0.1251 ( 37) -0.2223 ( 38)
           0.1406 ( 39) -0.1340 ( 42) -0.1247 ( 48)  0.1331 ( 51) -0.2101 ( 55)
          -0.1614 ( 56) -0.1055 ( 98) -0.1129 (101)
 CRD  5=   0.2102 (  3) -0.1654 (  7) -0.1162 (  8) -0.1273 ( 11)  0.1472 ( 13)
          -0.1037 ( 17)  0.1196 ( 25) -0.1259 ( 28)  0.1142 ( 29) -0.1064 ( 34)
          -0.1432 ( 41) -0.1084 ( 42)  0.1144 ( 47)  0.1190 ( 48)  0.1960 ( 49)
           0.1326 ( 63) -0.1789 ( 66) -0.1448 ( 67) -0.1547 ( 74) -0.1926 ( 75)
           0.1749 ( 78)  0.1309 ( 82)  0.1421 ( 83)  0.1111 ( 85) -0.1787 ( 89)
          -0.2128 ( 90) -0.2055 ( 92) -0.1677 ( 93)  0.1073 ( 97)  0.1074 ( 99)
           0.1765 (111)  0.1605 (115) -0.1050 (119) -0.1101 (120)
 CRD  6=  -0.2994 (  3) -0.1441 (  5) -0.3289 (  7) -0.1511 (  9) -0.2899 ( 10)
          -0.1143 ( 11) -0.1057 ( 12) -0.1309 ( 13) -0.2605 ( 15) -0.1267 ( 17)
          -0.1945 ( 39) -0.1734 ( 41)  0.1535 ( 42)  0.1673 ( 48) -0.1710 ( 49)
          -0.1328 ( 50)  0.1747 ( 55)  0.1011 ( 56) -0.1817 ( 64)  0.1794 ( 79)
          -0.1763 ( 81)  0.1834 ( 98)
 CRD  7=  -0.1172 (  3) -0.1186 ( 11)  0.1891 ( 17)  0.2025 ( 19)  0.4331 ( 20)
          -0.1376 ( 28) -0.1171 ( 29) -0.3814 ( 39)  0.1310 ( 41) -0.1132 ( 48)
           0.1049 ( 49) -0.1620 ( 50) -0.1825 ( 53)  0.3594 ( 55)  0.1263 ( 56)
           0.2598 ( 58)  0.1077 ( 64) -0.1024 ( 98)
 CRD  8=   0.1315 ( 10)  0.2467 ( 11) -0.3121 ( 13) -0.2284 ( 15)  0.1385 ( 17)
          -0.1321 ( 18)  0.1894 ( 21)  0.1577 ( 22) -0.1450 ( 33)  0.3222 ( 37)
           0.1106 ( 39) -0.1740 ( 40) -0.1080 ( 42) -0.3473 ( 47) -0.2755 ( 50)
           0.1422 ( 51)  0.1332 ( 56)  0.1144 ( 68) -0.1172 ( 89) -0.1066 ( 90)
           0.1352 (102)
 CRD  9=   0.1434 (  3)  0.1754 (  7)  0.1113 (  8) -0.3072 ( 10)  0.1220 ( 13)
          -0.2954 ( 15) -0.2327 ( 17) -0.2139 ( 19)  0.1196 ( 24) -0.1067 ( 32)
           0.1366 ( 34)  0.1013 ( 41)  0.1227 ( 42)  0.1077 ( 48) -0.1382 ( 52)
           0.1223 ( 53)  0.1289 ( 55)  0.1497 ( 61)  0.1305 ( 62) -0.1214 ( 63)
          -0.1818 ( 76) -0.1518 ( 77) -0.1056 ( 80)  0.1259 ( 85)  0.1289 ( 93)
          -0.1532 ( 95)  0.1451 (102) -0.1832 (105) -0.1340 (114)  0.1218 (116)
 CRD 10=   0.1013 (  3)  0.1133 (  7) -0.3318 ( 17) -0.1245 ( 18)  0.1864 ( 20)
           0.1273 ( 28)  0.2442 ( 50)  0.1241 ( 51) -0.4046 ( 52)  0.1719 ( 55)
          -0.3683 ( 56)  0.4038 ( 58) -0.1055 ( 62)
 CRD 11=   0.1693 (  6)  0.4737 (  7)  0.1981 ( 11)  0.1086 ( 14)  0.1006 ( 17)
           0.1202 ( 19) -0.2303 ( 22) -0.1317 ( 26)  0.2179 ( 29)  0.3586 ( 33)
           0.1227 ( 37) -0.1643 ( 39) -0.1792 ( 41) -0.1667 ( 50)  0.1157 ( 52)
          -0.1260 ( 53)  0.1293 ( 63)  0.1368 ( 86)  0.1784 (107)
 CRD 12=  -0.2391 (  3) -0.1201 (  4)  0.1221 (  7) -0.1817 ( 10) -0.2119 ( 11)
          -0.1188 ( 12) -0.2900 ( 13) -0.2978 ( 14) -0.1059 ( 15) -0.1634 ( 17)
          -0.1852 ( 19) -0.1022 ( 20) -0.2182 ( 22) -0.1683 ( 28)  0.1165 ( 31)
           0.1525 ( 32)  0.2411 ( 33)  0.1614 ( 38) -0.2035 ( 42) -0.1167 ( 47)
          -0.2097 ( 48)  0.1081 ( 49)  0.1453 ( 50)  0.1175 ( 53)  0.1049 ( 63)
           0.1333 ( 64) -0.1220 ( 79) -0.1402 ( 98) -0.1041 (116)
 CRD 13=  -0.4019 (  3) -0.2098 (  6)  0.1027 (  8)  0.2099 ( 11)  0.1490 ( 14)
           0.1770 ( 15)  0.1028 ( 21) -0.3015 ( 22)  0.1572 ( 26) -0.1489 ( 28)
           0.1581 ( 33)  0.1489 ( 37)  0.1780 ( 42) -0.1058 ( 46) -0.1109 ( 47)
           0.1693 ( 48)  0.1540 ( 49)  0.1757 ( 50) -0.1319 ( 56)  0.1916 ( 78)
          -0.1031 ( 81)  0.1336 ( 88)  0.1361 (100)  0.1156 (111) -0.1339 (114)
 CRD 14=  -0.3047 ( 11) -0.1334 ( 12) -0.2939 ( 13) -0.1710 ( 16) -0.1243 ( 17)
          -0.2215 ( 18)  0.2137 ( 19) -0.1507 ( 20) -0.2192 ( 21)  0.1331 ( 24)
          -0.1215 ( 30) -0.1201 ( 31)  0.1289 ( 35)  0.1568 ( 40) -0.1514 ( 44)
          -0.1551 ( 46)  0.1206 ( 48)  0.1646 ( 51)  0.1469 ( 52) -0.3035 ( 53)
          -0.1226 ( 55) -0.1032 ( 56)  0.1568 ( 58)
 CRD 15=   0.1457 (  3)  0.1182 (  4) -0.1230 (  7)  0.1372 (  9) -0.1336 ( 10)
           0.1781 ( 11) -0.2012 ( 12) -0.2095 ( 13)  0.1476 ( 15)  0.1559 ( 16)
          -0.1064 ( 20)  0.1812 ( 27) -0.1992 ( 32) -0.1079 ( 39)  0.1417 ( 42)
          -0.1747 ( 48)  0.1150 ( 50)  0.1496 ( 54)  0.1433 ( 55) -0.1721 ( 56)
          -0.1572 ( 57)  0.1054 ( 64)  0.1876 ( 65) -0.1348 ( 69) -0.1026 ( 70)
          -0.1540 ( 72) -0.1371 ( 73)  0.1061 ( 76)  0.2136 ( 80)  0.1025 ( 81)
           0.1221 (101)  0.1226 (108)  0.2097 (114)  0.1848 (116)  0.1106 (119)
 CRD 16=  -0.1152 (  8)  0.3247 ( 12) -0.2855 ( 16)  0.1322 ( 18) -0.2342 ( 21)
           0.1458 ( 27)  0.1002 ( 29) -0.1562 ( 32)  0.2300 ( 37)  0.1709 ( 40)
          -0.1295 ( 41)  0.1034 ( 43)  0.1764 ( 44) -0.1557 ( 45) -0.1051 ( 46)
          -0.2607 ( 47)  0.1387 ( 49) -0.1068 ( 51)  0.1277 ( 66)  0.1062 ( 67)
          -0.1402 ( 68) -0.1057 ( 71)  0.1470 ( 75)  0.1429 ( 86)  0.1640 ( 87)
           0.1433 ( 91)  0.1403 (104)  0.1136 (105)
 CRD 17=   0.1063 (  3)  0.1764 (  4) -0.1295 (  5)  0.3433 (  6)  0.1157 (  8)
          -0.1192 (  9) -0.1301 ( 13) -0.1684 ( 16)  0.3010 ( 18) -0.1646 ( 19)
           0.2288 ( 21) -0.1520 ( 26) -0.1157 ( 40) -0.1005 ( 41)  0.1067 ( 43)
          -0.1275 ( 46)  0.1141 ( 48)  0.1009 ( 50) -0.1440 ( 51)  0.1203 ( 53)
           0.1104 ( 65)  0.1177 ( 68) -0.1718 ( 69) -0.1710 ( 71)  0.1161 ( 72)
          -0.1264 ( 80) -0.1091 ( 83) -0.1154 ( 99)  0.1058 (106)
 CRD 18=   0.1342 (  9)  0.1364 ( 12)  0.1035 ( 15) -0.1231 ( 16)  0.1437 ( 18)
          -0.1389 ( 25)  0.1389 ( 28) -0.1189 ( 29)  0.1019 ( 34)  0.2171 ( 41)
          -0.1549 ( 42)  0.1512 ( 48) -0.2129 ( 49) -0.2008 ( 63) -0.1145 ( 65)
          -0.2225 ( 78) -0.1354 ( 80)  0.1104 ( 83)  0.1421 ( 84) -0.1241 ( 90)
          -0.1412 ( 92) -0.1155 ( 93) -0.1466 (103) -0.1632 (104) -0.1375 (110)
          -0.2104 (111) -0.1233 (114) -0.2158 (115) -0.1295 (116) -0.1065 (118)
           0.1167 (119)  0.1471 (120) -0.1223 (121)
 CRD 19=   0.1257 (  5) -0.1543 (  6) -0.3832 ( 12)  0.3435 ( 14) -0.4499 ( 16)
           0.1690 ( 18) -0.1424 ( 19)  0.1522 ( 21) -0.1547 ( 38)  0.1208 ( 66)
           0.1210 ( 70)  0.1259 ( 91) -0.1283 ( 96) -0.1156 ( 97) -0.1025 (106)
 CRD 20=  -0.1550 (  4)  0.2996 (  8) -0.1516 (  9)  0.2759 ( 12) -0.1802 ( 16)
          -0.1301 ( 25)  0.1166 ( 34) -0.1140 ( 36)  0.2333 ( 42) -0.1061 ( 44)
          -0.2057 ( 48)  0.2075 ( 65)  0.1173 ( 72) -0.1193 ( 75)  0.1809 ( 80)
           0.1160 ( 82)  0.1259 ( 83)  0.1185 ( 84) -0.1143 ( 90) -0.1431 ( 92)
          -0.1131 ( 93) -0.1746 (103) -0.2207 (104) -0.1906 (110)  0.1950 (114)
           0.1934 (116) -0.1479 (121)
 CRD 21=   0.3425 (  4) -0.2268 (  5)  0.3043 (  6)  0.1826 (  8) -0.1971 (  9)
           0.1280 ( 16)  0.1463 ( 27) -0.1075 ( 28)  0.1398 ( 32) -0.1109 ( 34)
           0.1303 ( 62) -0.1054 ( 69) -0.1244 ( 77)  0.1269 ( 83)  0.1832 ( 84)
           0.1179 ( 85)  0.1085 ( 91) -0.2148 ( 94) -0.1508 ( 95) -0.1725 ( 96)
          -0.1401 ( 97)  0.1337 ( 99)  0.1055 (100)  0.1305 (101) -0.1591 (106)
           0.1031 (109) -0.1480 (119)  0.1144 (120) -0.1266 (122)
 CRD 22=   0.2062 (  4)  0.2893 (  6)  0.1452 (  8)  0.2664 ( 14) -0.1229 ( 16)
          -0.1409 ( 28) -0.1442 ( 29)  0.2179 ( 41)  0.2043 ( 49) -0.1255 ( 62)
          -0.2689 ( 63) -0.1056 ( 64) -0.1614 ( 65)  0.1253 ( 77)  0.2374 ( 78)
           0.1857 ( 80) -0.1060 ( 85)  0.1434 ( 94)  0.1281 ( 95)  0.1539 (111)
           0.1150 (112)  0.1040 (113)  0.1023 (114) -0.1898 (115)  0.1029 (119)
 CRD 23=  -0.4833 (  4) -0.7083 (  5)  0.1481 ( 14)  0.1563 ( 27) -0.2138 ( 59)
          -0.1101 ( 80)  0.1867 ( 91)  0.1847 (101)  0.1953 (113)
 CRD 24=  -0.3100 (  4)  0.1144 (  5)  0.3872 (  8) -0.2390 (  9) -0.1234 ( 10)
           0.1332 ( 11)  0.1497 ( 18) -0.2355 ( 21)  0.1075 ( 28) -0.1651 ( 29)
           0.1123 ( 32)  0.1146 ( 63) -0.2255 ( 86) -0.1790 ( 87) -0.1523 ( 88)
          -0.1114 ( 91) -0.1462 (100) -0.1054 (101) -0.2217 (107) -0.1752 (108)
          -0.1601 (112) -0.1192 (113)  0.1094 (115) -0.1865 (117) -0.2330 (118)
 CRD 25=  -0.5417 (  8) -0.6940 (  9) -0.2334 ( 60)  0.1298 ( 65) -0.1463 ( 87)
          -0.1419 (108)  0.1194 (116) -0.1463 (117)
 CRD 26=  -0.3011 (  4)  0.2277 (  6) -0.1148 (  8) -0.3372 ( 14)  0.1590 ( 18)
           0.1171 ( 21)  0.1228 ( 41)  0.1338 ( 49) -0.1139 ( 59) -0.2525 ( 63)
          -0.1304 ( 64) -0.1460 ( 65)  0.2930 ( 78)  0.1306 ( 79)  0.1647 ( 80)
           0.1048 ( 86) -0.1765 ( 88) -0.1843 (100)  0.1099 (107)  0.2065 (111)
          -0.2003 (112) -0.1003 (113) -0.1658 (115)  0.1120 (118)
 CRD 27=  -0.1933 ( 12) -0.1815 ( 25) -0.1144 ( 34) -0.1193 ( 66) -0.2567 ( 82)
          -0.1485 ( 83)  0.2270 ( 84)  0.1318 ( 85) -0.1333 ( 89) -0.1774 ( 90)
           0.1080 ( 92) -0.1800 ( 94) -0.1104 ( 95)  0.1886 ( 96)  0.3035 ( 97)
          -0.1179 ( 99) -0.2848 (103)  0.1780 (104)  0.1428 (106) -0.2261 (109)
           0.1449 (110) -0.1394 (119)  0.1910 (120) -0.2406 (121)  0.2577 (122)
 CRD 28=  -0.1768 ( 10) -0.3393 ( 12)  0.1952 ( 16)  0.1011 ( 17)  0.4006 ( 18)
           0.2952 ( 19) -0.2599 ( 21)  0.1308 ( 34)  0.2636 ( 39) -0.1053 ( 47)
          -0.2882 ( 52) -0.2565 ( 55)  0.2788 ( 58)  0.1032 ( 94)
 CRD 29=   0.1703 ( 10) -0.1188 ( 11)  0.1515 ( 14)  0.2017 ( 15)  0.3845 ( 16)
          -0.5889 ( 19) -0.1058 ( 20) -0.2626 ( 21) -0.2657 ( 50) -0.1061 ( 52)
           0.2496 ( 56)  0.1357 ( 58)
 CRD 30=   0.2329 ( 12)  0.1440 ( 14) -0.1185 ( 42) -0.1140 ( 48)  0.1238 ( 61)
          -0.1933 ( 65) -0.2322 ( 67)  0.2290 ( 74) -0.1219 ( 76)  0.1979 ( 80)
           0.2210 ( 82) -0.2421 ( 89)  0.2545 ( 93) -0.2313 ( 97) -0.2467 ( 99)
           0.1691 (102) -0.1658 (105)  0.2401 (106)  0.1550 (110)  0.2066 (114)
          -0.1960 (116) -0.1358 (121)
 CRD 31=   0.1024 (  4) -0.1542 (  5)  0.1132 (  7)  0.1040 (  9)  0.2286 ( 11)
           0.2840 ( 12) -0.2280 ( 13) -0.2825 ( 16)  0.2412 ( 17)  0.2607 ( 18)
          -0.2642 ( 20) -0.2752 ( 21)  0.1304 ( 22) -0.1221 ( 33) -0.2079 ( 37)
           0.2207 ( 47) -0.1658 ( 52)  0.1675 ( 58) -0.1071 (102)  0.1104 (107)
 CRD 32=  -0.2446 (  4)  0.1893 (  5)  0.4795 (  6) -0.2346 (  8)  0.1857 (  9)
          -0.1553 ( 10)  0.3697 ( 14) -0.1551 ( 15)  0.1091 ( 17) -0.1895 ( 18)
           0.1649 ( 19) -0.2139 ( 21) -0.1011 ( 37)  0.1081 ( 54) -0.1363 (113)
           0.1265 (117)
 CRD 33=  -0.3025 (  3) -0.1937 (  5)  0.3121 (  7)  0.1244 (  9) -0.1391 ( 10)
           0.1091 ( 15) -0.1444 ( 17) -0.1679 ( 18)  0.1979 ( 20)  0.1167 ( 21)
           0.3364 ( 22) -0.1045 ( 28)  0.1184 ( 29) -0.3504 ( 33) -0.1075 ( 55)
           0.1046 ( 56)  0.1654 ( 59) -0.1364 ( 60) -0.1009 ( 87) -0.1270 ( 91)
          -0.1567 (101) -0.1304 (108) -0.1854 (113)  0.1006 (115)  0.1282 (116)
          -0.1420 (117)
 CRD 34=   0.1480 (  3) -0.1306 (  7) -0.2219 ( 10)  0.1409 ( 11) -0.1130 ( 13)
           0.2537 ( 15) -0.1102 ( 16) -0.2244 ( 18) -0.1135 ( 19)  0.1321 ( 20)
           0.1925 ( 21)  0.1099 ( 33) -0.2097 ( 37)  0.1953 ( 39)  0.1235 ( 44)
          -0.1283 ( 46)  0.2084 ( 47) -0.2138 ( 50) -0.1824 ( 52)  0.1285 ( 54)
          -0.2761 ( 55)  0.2780 ( 56) -0.1388 ( 57)  0.2062 ( 58) -0.1105 (112)
 CRD 35=   0.1918 ( 10)  0.1725 ( 11) -0.2845 ( 12)  0.2008 ( 13) -0.2635 ( 14)
           0.1329 ( 15) -0.2777 ( 16)  0.2369 ( 17) -0.3438 ( 18) -0.2545 ( 19)
           0.2332 ( 20) -0.4141 ( 21)  0.1310 ( 82) -0.1266 ( 97)
 CRD 36=   0.1250 (  3)  0.1459 (  4) -0.4508 (  6)  0.1108 (  8)  0.3368 ( 14)
          -0.1248 ( 15) -0.1398 ( 18)  0.1137 ( 19) -0.1763 ( 21) -0.1404 ( 26)
           0.1059 ( 53) -0.1565 ( 69)  0.1624 ( 72)  0.1307 ( 86) -0.1428 ( 88)
          -0.1353 (100)  0.1199 (107)  0.1075 (111) -0.2096 (112) -0.1267 (113)
           0.1227 (117)  0.1991 (118)
 CRD 37=   0.1641 (  8) -0.1538 (  9)  0.1368 ( 14)  0.1158 ( 18) -0.1286 ( 20)
          -0.1170 ( 25) -0.1157 ( 32) -0.1559 ( 34)  0.1404 ( 41)  0.1022 ( 44)
          -0.1292 ( 63)  0.2245 ( 81)  0.2014 ( 82)  0.1304 ( 87) -0.2090 ( 97)
          -0.2361 ( 98)  0.1133 (109)  0.1829 (110) -0.1422 (111) -0.2861 (114)
           0.2484 (116)  0.1023 (117) -0.1655 (121)
 CRD 38=   0.1278 (  3) -0.1557 (  7) -0.1103 ( 17) -0.1149 ( 21) -0.1696 ( 25)
          -0.1262 ( 28)  0.1259 ( 29)  0.1420 ( 34) -0.1192 ( 41) -0.1453 ( 42)
          -0.1085 ( 44)  0.1476 ( 48)  0.1398 ( 49)  0.1362 ( 63) -0.1221 ( 65)
           0.1036 ( 74)  0.1586 ( 78) -0.1268 ( 80)  0.2288 ( 84)  0.1459 ( 89)
           0.1689 ( 93)  0.2016 ( 94) -0.1340 ( 99) -0.2072 (103) -0.1957 (104)
          -0.1521 (106) -0.1487 (109)  0.1155 (111) -0.1698 (114)  0.1835 (115)
           0.2226 (119)  0.2142 (120) -0.1131 (121) -0.1361 (122)
 CRD 39=  -0.1102 (  7)  0.1042 (  8)  0.1006 ( 10) -0.2548 ( 11)  0.2703 ( 13)
          -0.1693 ( 15)  0.4388 ( 17) -0.1879 ( 18) -0.3748 ( 20)  0.1747 ( 21)
           0.1220 ( 37)  0.1027 ( 40) -0.1309 ( 47)  0.1085 ( 50) -0.2282 ( 52)
           0.2389 ( 58) -0.1054 ( 69) -0.1084 ( 72) -0.1177 (113) -0.1218 (117)
           0.1295 (119)  0.1050 (120)
 CRD 40=  -0.1227 ( 10) -0.1623 ( 13)  0.2170 ( 14) -0.1652 ( 15)  0.2642 ( 17)
           0.1187 ( 18) -0.4012 ( 19)  0.2806 ( 20)  0.1280 ( 38)  0.1314 ( 40)
           0.1452 ( 50)  0.1610 ( 51)  0.2054 ( 52) -0.3132 ( 53) -0.2154 ( 55)
          -0.3060 ( 56)  0.1075 ( 58)
 CRD 41=   0.1731 (  4) -0.2313 (  8)  0.1367 (  9) -0.3119 ( 10)  0.1669 ( 12)
           0.1766 ( 15)  0.1337 ( 17) -0.1215 ( 18)  0.1362 ( 21) -0.1741 ( 29)
           0.1627 ( 37) -0.1716 ( 44)  0.1597 ( 46) -0.1514 ( 47) -0.1012 ( 54)
          -0.1059 ( 55)  0.1210 ( 57)  0.1254 ( 58)  0.1300 ( 69)  0.1874 ( 72)
           0.1363 ( 78) -0.2141 ( 86) -0.1031 ( 87) -0.1542 ( 88)  0.1388 ( 93)
          -0.1011 ( 94) -0.1224 ( 99) -0.1176 (100) -0.1020 (103) -0.1199 (107)
           0.1105 (111) -0.1107 (122)
 CRD 42=   0.1388 (  5) -0.1125 (  6)  0.1316 (  9) -0.1048 ( 10) -0.2060 ( 15)
           0.1056 ( 16) -0.1307 ( 19)  0.1801 ( 20) -0.1276 ( 23) -0.1372 ( 26)
           0.1069 ( 27) -0.1122 ( 36) -0.1241 ( 38)  0.1102 ( 39)  0.1038 ( 45)
          -0.1033 ( 53) -0.1217 ( 56) -0.1347 ( 60) -0.1609 ( 61)  0.1312 ( 65)
           0.1284 ( 76) -0.1095 ( 80)  0.1546 ( 82) -0.1241 ( 87) -0.1490 ( 89)
           0.1144 ( 91) -0.1816 ( 97) -0.2207 (102)  0.1493 (104)  0.1896 (105)
           0.1347 (106)  0.1018 (107)  0.1487 (109)  0.1508 (110) -0.1291 (115)
          -0.1267 (117)  0.1190 (119) -0.1462 (120) -0.1895 (121)
 CRD 43=  -0.2823 (  3)  0.1750 (  5) -0.1375 (  7)  0.1609 (  8) -0.1603 ( 11)
           0.1221 ( 12) -0.1359 ( 13)  0.1346 ( 15)  0.1098 ( 16) -0.1591 ( 18)
          -0.1263 ( 21)  0.1356 ( 27)  0.1053 ( 28)  0.1147 ( 29) -0.1114 ( 40)
          -0.1540 ( 51)  0.1016 ( 53) -0.1680 ( 54) -0.1039 ( 57) -0.2288 ( 59)
          -0.1805 ( 60)  0.1352 ( 81) -0.1032 ( 88)  0.1359 ( 91) -0.1854 (100)
           0.1306 (102)  0.1905 (107)  0.1314 (110)  0.2061 (113) -0.1570 (114)
           0.1514 (116) -0.1255 (117)
 CRD 44=  -0.2116 (  3)  0.1655 (  5)  0.2669 (  7) -0.1978 (  9)  0.1590 ( 11)
          -0.1452 ( 12)  0.1213 ( 17) -0.1459 ( 20)  0.1470 ( 22)  0.1463 ( 27)
          -0.1491 ( 32) -0.1506 ( 33) -0.1057 ( 39)  0.1025 ( 40)  0.1161 ( 57)
           0.1389 ( 60) -0.1479 ( 68) -0.1048 ( 71)  0.1459 ( 74)  0.1005 ( 85)
           0.1695 ( 87) -0.1566 ( 90)  0.1213 ( 91) -0.1409 ( 92)  0.1056 ( 98)
          -0.1481 ( 99) -0.1010 (104)  0.1423 (105) -0.1416 (106) -0.1187 (107)
          -0.1516 (109)  0.1268 (110) -0.1198 (116)  0.1426 (117)  0.1190 (121)
          -0.1382 (122)
 CRD 45=  -0.2417 (  3)  0.1808 (  4)  0.1792 ( 11) -0.1349 ( 12) -0.1028 ( 13)
          -0.1241 ( 20)  0.1076 ( 21)  0.1258 ( 28)  0.1305 ( 34) -0.1144 ( 39)
          -0.1034 ( 41) -0.1397 ( 45) -0.2315 ( 59)  0.1064 ( 63) -0.1382 ( 67)
          -0.1121 ( 68)  0.1964 ( 75) -0.1023 ( 77)  0.1141 ( 78) -0.1330 ( 83)
          -0.1773 ( 88)  0.1269 ( 92) -0.1316 ( 93) -0.1011 ( 97)  0.1204 ( 99)
          -0.1417 (100) -0.1237 (102)  0.1725 (106) -0.1365 (108)  0.2130 (109)
          -0.2654 (110)  0.1073 (111) -0.1173 (112)  0.1221 (113)  0.1150 (115)
          -0.1875 (121)
 CRD 46=  -0.1329 (  6)  0.2396 (  7) -0.2069 (  8) -0.1055 ( 13) -0.1066 ( 14)
          -0.1061 ( 15)  0.1949 ( 16)  0.1197 ( 17)  0.1187 ( 22) -0.1283 ( 26)
          -0.1124 ( 28) -0.1761 ( 29)  0.1014 ( 42)  0.1789 ( 43)  0.1463 ( 47)
           0.1336 ( 50)  0.1423 ( 60) -0.1675 ( 62) -0.1136 ( 64)  0.1086 ( 66)
           0.1174 ( 68) -0.1554 ( 71) -0.1184 ( 74)  0.1294 ( 77)  0.1040 ( 78)
          -0.1479 ( 86)  0.1318 ( 88)  0.1392 ( 91)  0.1221 ( 94)  0.1405 (102)
          -0.1732 (105) -0.1187 (107) -0.1005 (110)  0.1173 (115) -0.1795 (118)
           0.1873 (120) -0.1189 (121)  0.1158 (122)
 CRD 47=   0.1524 (  3) -0.1100 (  4) -0.1313 (  9) -0.3160 ( 13)  0.2177 ( 15)
          -0.1551 ( 18) -0.1551 ( 23)  0.1555 ( 24) -0.1113 ( 31) -0.1007 ( 32)
           0.1881 ( 46) -0.1555 ( 51) -0.2313 ( 54)  0.1701 ( 59)  0.1336 ( 66)
           0.1616 ( 69) -0.1431 ( 71) -0.1014 ( 78) -0.1269 ( 91) -0.2073 (101)
           0.1344 (109)  0.2921 (112) -0.1122 (115) -0.1226 (116) -0.1565 (121)
 CRD 48=   0.1995 (  4) -0.1521 (  5) -0.1396 (  8)  0.2666 ( 10) -0.2355 ( 11)
           0.1044 ( 14) -0.1147 ( 22) -0.1255 ( 27)  0.1364 ( 28)  0.1389 ( 35)
          -0.1712 ( 36) -0.1012 ( 40)  0.1835 ( 44) -0.1824 ( 57)  0.1265 ( 60)
           0.1313 ( 63)  0.1149 ( 69)  0.1161 ( 70) -0.1936 ( 72) -0.1514 ( 77)
          -0.1281 ( 79)  0.1348 ( 87) -0.1239 (100)  0.1206 (108)  0.1059 (110)
           0.1355 (111) -0.1549 (117) -0.3143 (118)  0.1657 (119)
 CRD 49=   0.1582 (  3) -0.1894 (  7)  0.2472 (  9)  0.1097 ( 10)  0.1363 ( 11)
          -0.2306 ( 12) -0.1681 ( 13) -0.1037 ( 20)  0.1052 ( 30)  0.1499 ( 32)
           0.1218 ( 33) -0.1018 ( 35) -0.1209 ( 37) -0.1112 ( 39)  0.1016 ( 40)
           0.1003 ( 44) -0.1404 ( 45) -0.1791 ( 60) -0.1144 ( 64)  0.1374 ( 65)
           0.1048 ( 72)  0.2148 ( 73)  0.1990 ( 74) -0.1598 ( 76) -0.1337 ( 81)
           0.1550 ( 86) -0.1533 ( 92)  0.1078 ( 95) -0.1012 (101) -0.2787 (108)
           0.1181 (116) -0.1662 (117)
 CRD 50=  -0.1378 (  4)  0.1848 (  5)  0.1136 (  7)  0.1281 ( 10) -0.1851 ( 11)
           0.1333 ( 14)  0.1786 ( 15) -0.2177 ( 16)  0.1190 ( 22) -0.1539 ( 26)
           0.1264 ( 27) -0.1370 ( 28)  0.2032 ( 38) -0.1533 ( 43)  0.1306 ( 44)
           0.1847 ( 46) -0.1498 ( 47)  0.1096 ( 48)  0.2014 ( 61)  0.1045 ( 62)
          -0.2733 ( 70)  0.1211 ( 73)  0.1263 ( 79) -0.1014 ( 80) -0.1156 ( 81)
          -0.1091 ( 88)  0.1231 ( 89)  0.1177 ( 90)  0.2120 ( 98)  0.1269 (100)
           0.1500 (101)  0.1073 (113) -0.1131 (118)  0.1128 (120)
 CRD 51=   0.2139 ( 23) -0.1658 ( 24)  0.1472 ( 31)  0.1313 ( 36) -0.2434 ( 66)
           0.1248 ( 70) -0.1549 ( 74) -0.2794 ( 83) -0.1843 ( 90)  0.1697 ( 92)
           0.2819 ( 96)  0.1524 (102) -0.1078 (105)  0.2666 (109) -0.1194 (110)
           0.1837 (121) -0.3743 (122)
 CRD 52=  -0.2182 ( 15) -0.2141 ( 23)  0.1017 ( 30) -0.1146 ( 35) -0.1758 ( 36)
           0.1604 ( 45)  0.1115 ( 47) -0.1005 ( 50)  0.2239 ( 61)  0.1561 ( 67)
          -0.1376 ( 73)  0.1107 ( 75) -0.2568 ( 76) -0.1232 ( 83) -0.2391 ( 85)
           0.1512 ( 89) -0.1315 ( 93)  0.2488 ( 95)  0.1814 ( 96) -0.1678 (103)
           0.1016 (104)  0.1192 (109) -0.2684 (119)  0.2400 (120) -0.1852 (122)
 CRD 53=   0.1078 ( 23) -0.1173 ( 24) -0.1088 ( 27)  0.1220 ( 31) -0.1079 ( 32)
           0.1126 ( 36) -0.1478 ( 62)  0.2201 ( 64)  0.2527 ( 65)  0.1068 ( 70)
           0.1535 ( 77) -0.2195 ( 79) -0.2921 ( 80) -0.1617 ( 81)  0.1420 ( 83)
           0.1468 ( 90) -0.1708 ( 96)  0.1721 ( 98) -0.1008 (109)  0.3536 (111)
          -0.2842 (115) -0.1291 (116) -0.1002 (119)  0.1388 (120) -0.1079 (121)
           0.1505 (122)
 CRD 54=  -0.1857 ( 10)  0.1329 ( 22) -0.2331 ( 23) -0.1022 ( 24)  0.1444 ( 25)
          -0.1353 ( 30)  0.2007 ( 31)  0.1276 ( 32)  0.2412 ( 35) -0.3276 ( 36)
           0.1019 ( 37) -0.1728 ( 39)  0.1271 ( 40)  0.1153 ( 41)  0.1776 ( 43)
          -0.1283 ( 48) -0.1043 ( 49)  0.1183 ( 50) -0.1287 ( 51)  0.1965 ( 61)
           0.1070 ( 62) -0.1213 ( 67)  0.1424 ( 70)  0.1304 ( 73) -0.1144 ( 74)
          -0.1284 ( 75) -0.1422 ( 76) -0.1524 ( 85)  0.1285 ( 90)  0.1607 ( 95)
           0.1042 (105)  0.1124 (120)

 THE DETERMINANT OF THE G MATRIX IS 10**(   -20)


                     --------------------
                     INTERNAL COORDINATES
                     --------------------

                 - - ATOMS - -         COORDINATE      COORDINATE
 NO.   TYPE    I  J  K  L  M  N        (BOHR,RAD)       (ANG,DEG)
 ----------------------------------------------------------------
   1 STRETCH   1  6                     3.7843931       2.0026147
   2 STRETCH   3  4                     3.7762981       1.9983310
   3 STRETCH   1  2                     2.5654715       1.3575892
   4 STRETCH   1 12                     2.0706552       1.0957436
   5 STRETCH   1 11                     2.0655408       1.0930372
   6 STRETCH   2 13                     2.0545042       1.0871969
   7 STRETCH   2  3                     2.8437116       1.5048275
   8 STRETCH   3 14                     2.0652074       1.0928608
   9 STRETCH   3 15                     2.0665060       1.0935479
  10 STRETCH   4  9                     2.8695553       1.5185034
  11 STRETCH   4  5                     2.8415494       1.5036833
  12 STRETCH   4 16                     2.0639530       1.0921969
  13 STRETCH   5  6                     2.5723647       1.3612369
  14 STRETCH   5 17                     2.0514758       1.0855943
  15 STRETCH   6  7                     2.8021287       1.4828228
  16 STRETCH   6 18                     2.0711075       1.0959830
  17 STRETCH   7  8                     2.5342011       1.3410416
  18 STRETCH   7 19                     2.0540556       1.0869595
  19 STRETCH   8 20                     2.0436241       1.0814394
  20 STRETCH   8  9                     2.8079397       1.4858978
  21 STRETCH   9 10                     2.3232477       1.2294098
  22 BEND      1  2 13                  2.0902180     119.7606723
  23 BEND      1  6  7                  1.8430701     105.6001403
  24 BEND      1  6  5                  1.7964137     102.9269239
  25 BEND      1  6 18                  1.6709526      95.7385303
  26 BEND      1  2  3                  2.0919823     119.8617556
  27 BEND      2  1 12                  2.0220424     115.8544938
  28 BEND      2  1 11                  2.0598574     118.0211338
  29 BEND      2  3 15                  1.9659973     112.6433468
  30 BEND      2  3  4                  1.8409891     105.4809046
  31 BEND      2  1  6                  1.9056934     109.1881902
  32 BEND      2  3 14                  2.0117431     115.2643911
  33 BEND      3  2 13                  2.0491547     117.4079167
  34 BEND      3  4 16                  1.8530823     106.1737955
  35 BEND      3  4  5                  1.8046417     103.3983518
  36 BEND      3  4  9                  1.8198902     104.2720301
  37 BEND      4  5 17                  2.0695470     118.5763069
  38 BEND      4  5  6                  2.0252311     116.0371917
  39 BEND      4  9 10                  2.1398815     122.6061809
  40 BEND      4  9  8                  2.0559249     117.7958180
  41 BEND      4  3 15                  1.8013859     103.2118118
  42 BEND      4  3 14                  1.8541366     106.2342013
  43 BEND      5  6  7                  2.0059672     114.9334554
  44 BEND      5  4 16                  2.0096327     115.1434707
  45 BEND      5  4  9                  1.9820809     113.5648707
  46 BEND      5  6 18                  2.0643434     118.2781621
  47 BEND      6  5 17                  2.1034110     120.5165744
  48 BEND      6  1 12                  1.5360584      88.0096618
  49 BEND      6  1 11                  1.7963070     102.9208102
  50 BEND      6  7 19                  2.0341311     116.5471259
  51 BEND      6  7  8                  2.1472403     123.0278076
  52 BEND      7  8 20                  2.1555880     123.5060969
  53 BEND      7  8  9                  2.0754871     118.9166529
  54 BEND      7  6 18                  2.0133791     115.3581256
  55 BEND      8  9 10                  2.0866881     119.5584209
  56 BEND      8  7 19                  2.1017721     120.4226725
  57 BEND      9  4 16                  1.9698174     112.8622230
  58 BEND      9  8 20                  2.0521039     117.5768937
  59 BEND     11  1 12                  2.0390916     116.8313411
  60 BEND     14  3 15                  1.9675827     112.7341858
  61 TORSION   1  6  5 17               1.5131951      86.6996919
  62 TORSION   1  6  5  4              -1.1911398     -68.2472854
  63 TORSION   1  2  3 15              -2.8899652    -165.5828092
  64 TORSION   1  2  3  4              -0.9374694     -53.7130395
  65 TORSION   1  2  3 14               1.1017523      63.1257564
  66 TORSION   1  6  7  8               1.5200406      87.0919096
  67 TORSION   1  6  7 19              -1.6313542     -93.4697102
  68 TORSION   2  3  4  9               1.9495222     111.6993963
  69 TORSION   2  1  6 18               2.1645438     124.0192254
  70 TORSION   2  1  6  5               0.0567188       3.2497455
  71 TORSION   2  1  6  7              -2.0529346    -117.6244895
  72 TORSION   2  3  4 16              -2.2494145    -128.8819563
  73 TORSION   2  3  4  5              -0.1272420      -7.2904288
  74 TORSION   3  4  9 10               1.4295185      81.9053762
  75 TORSION   3  4  9  8              -1.6719166     -95.7937662
  76 TORSION   3  4  5 17              -1.4805818     -84.8310879
  77 TORSION   3  4  5  6               1.2326231      70.6241011
  78 TORSION   3  2  1 11               3.0447368     174.4505684
  79 TORSION   3  2  1  6               1.0033647      57.4885605
  80 TORSION   3  2  1 12              -0.6955587     -39.8525780
  81 TORSION   4  3  2 13               1.8632085     106.7539819
  82 TORSION   4  9  8 20              -3.0863339    -176.8339067
  83 TORSION   4  9  8  7               0.0589157       3.3756235
  84 TORSION   4  5  6 18              -3.0042659    -172.1317557
  85 TORSION   4  5  6  7               0.8031840      46.0190529
  86 TORSION   5  4  3 15               1.9389393     111.0930413
  87 TORSION   5  4  3 14              -2.2707346    -130.1035108
  88 TORSION   5  6  1 11              -2.1453738    -122.9208643
  89 TORSION   5  6  7 19               2.6848095     153.8282513
  90 TORSION   5  6  7  8              -0.4469811     -25.6101288
  91 TORSION   5  6  1 12               2.0941958     119.9885788
  92 TORSION   5  4  9  8               0.2798284      16.0329866
  93 TORSION   5  4  9 10              -2.9019218    -166.2678710
  94 TORSION   6  5  4 16              -3.0373537    -174.0275504
  95 TORSION   6  5  4  9              -0.7283741     -41.7327632
  96 TORSION   6  7  8  9               0.0028985       0.1660699
  97 TORSION   6  7  8 20              -3.1348067    -179.6111913
  98 TORSION   6  1  2 13              -1.7892732    -102.5178035
  99 TORSION   7  8  9 10              -3.0437877    -174.3961879
 100 TORSION   7  6  1 11               2.0281581     116.2049007
 101 TORSION   7  6  1 12              -0.0154576      -0.8856562
 102 TORSION   7  6  5 17              -2.7756664    -159.0339698
 103 TORSION   8  7  6 18              -2.9425488    -168.5956269
 104 TORSION   8  9  4 16               2.6079274     149.4232316
 105 TORSION   9  4  5 17               2.8416063     162.8120478
 106 TORSION   9  8  7 19              -3.1285254    -179.2513028
 107 TORSION   9  4  3 15              -2.2674817    -129.9171336
 108 TORSION   9  4  3 14              -0.1939704     -11.1136857
 109 TORSION  10  9  8 20               0.0941480       5.3942818
 110 TORSION  10  9  4 16              -0.5738228     -32.8776260
 111 TORSION  11  1  2 13               0.2520989      14.4442044
 112 TORSION  11  1  6 18              -0.0375487      -2.1513844
 113 TORSION  12  1  6 18              -2.0811645    -119.2419413
 114 TORSION  12  1  2 13               2.7949887     160.1410580
 115 TORSION  13  2  3 15              -0.0892873      -5.1157879
 116 TORSION  13  2  3 14              -2.3807552    -136.4072222
 117 TORSION  14  3  4 16               1.8902782     108.3049617
 118 TORSION  15  3  4 16              -0.1832332     -10.4984862
 119 TORSION  16  4  5 17               0.5326267      30.5172606
 120 TORSION  17  5  6 18              -0.2999310     -17.1847784
 121 TORSION  18  6  7 19               0.1892417      10.8427533
 122 TORSION  19  7  8 20               0.0169548       0.9714360

     ------------------------------------------
     THE POINT GROUP IS C1 , NAXIS= 0, ORDER= 1
     ------------------------------------------

     DIMENSIONS OF THE SYMMETRY SUBSPACES ARE
 A   =   60

 ..... DONE SETTING UP THE RUN .....
 STEP CPU TIME =     0.05 TOTAL CPU TIME =          0.0 (      0.0 MIN)
 TOTAL WALL CLOCK TIME=          0.1 SECONDS, CPU UTILIZATION IS    71.43%


          -----------------------------
          STATIONARY POINT LOCATION RUN
          -----------------------------


           ** GEOMETRY CONSTRAINTS ARE BEING APPLIED. **

          TRANSFORMING DISPLACEMENT FROM INTERNALS TO CARTESIANS
          THE ROOT MEAN SQUARE ERROR IN ITERATION   1 IS   0.00000139
          THE ROOT MEAN SQUARE ERROR IN ITERATION   2 IS   0.00000000
 WARNING! THE RADIUS IN CARTESIANS IS    0.00949
 OBTAINING INITIAL HESSIAN, HESS=CALC    

     ---------------------------------
     HESSIAN MATRIX CONTROL PARAMETERS
     ---------------------------------
     METHOD=ANALYTIC   NVIB  =       2   VIBSIZ= 0.01000
     RDHESS=       F   PURIFY=       F   PRTIFC=       F
     VIBANL=       F   DECOMP=       F   PROJCT=       F
     SCLFAC= 1.00000   PRTSCN=       F   NPRT  =       0
     PULCOR=       F   NPUN  =       0   REDOVB=       T
     HSSTYP=GENERAL 
 Old integral subroutine is used

     ------------------------------
     CPHF RESPONSE SOLUTION OPTIONS
     ------------------------------
     POLAR  =       F     NWORD  =       0
     CPHF   =AO      

          ********************
          1 ELECTRON INTEGRALS
          ********************
 ...... END OF ONE-ELECTRON INTEGRALS ......
 STEP CPU TIME =     0.05 TOTAL CPU TIME =          0.1 (      0.0 MIN)
 TOTAL WALL CLOCK TIME=          0.1 SECONDS, CPU UTILIZATION IS    83.33%

          -------------
          GUESS OPTIONS
          -------------
          GUESS =HUCKEL            NORB  =       0          NORDER=       0
          MIX   =       F          PRTMO =       F          PUNMO =       F
          TOLZ  = 1.0E-08          TOLE  = 1.0E-05
          SYMDEN=       F          PURIFY=       F

 INITIAL GUESS ORBITALS GENERATED BY HUCKEL   ROUTINE.
 HUCKEL GUESS REQUIRES     53820 WORDS.

 SYMMETRIES FOR INITIAL GUESS ORBITALS FOLLOW.   BOTH SET(S).
    36 ORBITALS ARE OCCUPIED (   10 CORE ORBITALS).
    11=A       12=A       13=A       14=A       15=A       16=A       17=A   
    18=A       19=A       20=A       21=A       22=A       23=A       24=A   
    25=A       26=A       27=A       28=A       29=A       30=A       31=A   
    32=A       33=A       34=A       35=A       36=A       37=A       38=A   
    39=A       40=A       41=A       42=A       43=A       44=A       45=A   
    46=A   
 ...... END OF INITIAL ORBITAL SELECTION ......
 STEP CPU TIME =     0.03 TOTAL CPU TIME =          0.1 (      0.0 MIN)
 TOTAL WALL CLOCK TIME=          0.2 SECONDS, CPU UTILIZATION IS    81.25%

                    ----------------------
                    AO INTEGRAL TECHNOLOGY
                    ----------------------
     S,P,L SHELL ROTATED AXIS INTEGRALS, REPROGRAMMED BY
        KAZUYA ISHIMURA (IMS) AND JOSE SIERRA (SYNSTAR).
     S,P,D,L SHELL ROTATED AXIS INTEGRALS PROGRAMMED BY
        KAZUYA ISHIMURA (INSTITUTE FOR MOLECULAR SCIENCE).
     S,P,D,F,G SHELL TO TOTAL QUARTET ANGULAR MOMENTUM SUM 5,
        ERIC PROGRAM BY GRAHAM FLETCHER (ELORET AND NASA ADVANCED
        SUPERCOMPUTING DIVISION, AMES RESEARCH CENTER).
     S,P,D,F,G,L SHELL GENERAL RYS QUADRATURE PROGRAMMED BY
        MICHEL DUPUIS (PACIFIC NORTHWEST NATIONAL LABORATORY).

          --------------------
          2 ELECTRON INTEGRALS
          --------------------

 THE -PK- OPTION IS OFF, THE INTEGRALS ARE NOT IN SUPERMATRIX FORM.
 STORING   15000 INTEGRALS/RECORD ON DISK, USING 12 BYTES/INTEGRAL.
 TWO ELECTRON INTEGRAL EVALUATION REQUIRES   89821 WORDS OF MEMORY.
 SCHWARZ INEQUALITY OVERHEAD:      1797 INTEGRALS, T=        0.00
 II,JST,KST,LST =  1  1  1  1 NREC =         1 INTLOC =    1
 II,JST,KST,LST =  2  1  1  1 NREC =         1 INTLOC =    2
 II,JST,KST,LST =  3  1  1  1 NREC =         1 INTLOC =   34
 II,JST,KST,LST =  4  1  1  1 NREC =         1 INTLOC =  144
 II,JST,KST,LST =  5  1  1  1 NREC =         1 INTLOC = 1366
 II,JST,KST,LST =  6  1  1  1 NREC =         1 INTLOC = 1958
 II,JST,KST,LST =  7  1  1  1 NREC =         1 INTLOC = 6854
 II,JST,KST,LST =  8  1  1  1 NREC =         1 INTLOC = 8471
 II,JST,KST,LST =  9  1  1  1 NREC =         2 INTLOC = 5874
 II,JST,KST,LST = 10  1  1  1 NREC =         2 INTLOC = 9609
 II,JST,KST,LST = 11  1  1  1 NREC =         4 INTLOC = 4938
 II,JST,KST,LST = 12  1  1  1 NREC =         4 INTLOC =12069
 II,JST,KST,LST = 13  1  1  1 NREC =         7 INTLOC =12128
 II,JST,KST,LST = 14  1  1  1 NREC =         8 INTLOC = 8366
 II,JST,KST,LST = 15  1  1  1 NREC =        13 INTLOC = 5388
 II,JST,KST,LST = 16  1  1  1 NREC =        14 INTLOC = 7132
 II,JST,KST,LST = 17  1  1  1 NREC =        21 INTLOC = 9769
 II,JST,KST,LST = 18  1  1  1 NREC =        23 INTLOC = 5489
 II,JST,KST,LST = 19  1  1  1 NREC =        33 INTLOC =12258
 II,JST,KST,LST = 20  1  1  1 NREC =        35 INTLOC = 7267
 II,JST,KST,LST = 21  1  1  1 NREC =        47 INTLOC = 7232
 II,JST,KST,LST = 22  1  1  1 NREC =        51 INTLOC = 2956
 II,JST,KST,LST = 23  1  1  1 NREC =        55 INTLOC = 7954
 II,JST,KST,LST = 24  1  1  1 NREC =        59 INTLOC =10347
 II,JST,KST,LST = 25  1  1  1 NREC =        64 INTLOC = 8264
 II,JST,KST,LST = 26  1  1  1 NREC =        69 INTLOC = 7609
 II,JST,KST,LST = 27  1  1  1 NREC =        74 INTLOC =14045
 II,JST,KST,LST = 28  1  1  1 NREC =        80 INTLOC = 8707
 II,JST,KST,LST = 29  1  1  1 NREC =        86 INTLOC = 5729
 II,JST,KST,LST = 30  1  1  1 NREC =        92 INTLOC = 7053
 SCHWARZ INEQUALITY TEST SKIPPED       25080 INTEGRAL BLOCKS.
 TOTAL NUMBER OF NONZERO TWO-ELECTRON INTEGRALS =             1468322
         98 INTEGRAL RECORDS WERE STORED ON DISK FILE  8.
  ...... END OF TWO-ELECTRON INTEGRALS .....
 STEP CPU TIME =     0.31 TOTAL CPU TIME =          0.4 (      0.0 MIN)
 TOTAL WALL CLOCK TIME=          0.5 SECONDS, CPU UTILIZATION IS    93.62%

          --------------------------
                 RHF SCF CALCULATION
          --------------------------

     NUCLEAR ENERGY =       505.3032693577
     MAXIT =   30     NPUNCH=    2
     EXTRAP=T  DAMP=F  SHIFT=F  RSTRCT=F  DIIS=F  DEM=F  SOSCF=T
     DENSITY MATRIX CONV=  1.00E-05
     SOSCF WILL OPTIMIZE     864 ORBITAL ROTATIONS, SOGTOL=   0.250
     MEMORY REQUIRED FOR RHF ITERS=     59496 WORDS.

 ITER EX DEM     TOTAL ENERGY        E CHANGE  DENSITY CHANGE     ORB. GRAD
   1  0  0     -415.4874358681  -415.4874358681   0.520886549   0.000000000
          ---------------START SECOND ORDER SCF---------------
   2  1  0     -416.0006802706    -0.5132444025   0.301063315   0.061620102
   3  2  0     -416.0331697008    -0.0324894302   0.136070230   0.049679910
   4  3  0     -416.0676998679    -0.0345301671   0.029210295   0.006426868
   5  4  0     -416.0686431732    -0.0009433053   0.008912012   0.003263296
   6  5  0     -416.0687857415    -0.0001425683   0.002720993   0.000839462
   7  6  0     -416.0688061614    -0.0000204198   0.000927525   0.000254535
   8  7  0     -416.0688082450    -0.0000020837   0.000359222   0.000103200
   9  8  0     -416.0688086770    -0.0000004320   0.000150034   0.000035302
  10  9  0     -416.0688087327    -0.0000000558   0.000091055   0.000016213
  11 10  0     -416.0688087411    -0.0000000084   0.000022379   0.000003374
  12 11  0     -416.0688087422    -0.0000000010   0.000011352   0.000002128
  13 12  0     -416.0688087423    -0.0000000002   0.000005446   0.000000821
  14 13  0     -416.0688087424    -0.0000000000   0.000002161   0.000000306

          -----------------
          DENSITY CONVERGED
          -----------------
     TIME TO FORM FOCK OPERATORS=       0.4 SECONDS (       0.0 SEC/ITER)
     TIME TO SOLVE SCF EQUATIONS=       0.1 SECONDS (       0.0 SEC/ITER)

 FINAL RHF ENERGY IS     -416.0688087424 AFTER  14 ITERATIONS

          ------------
          EIGENVECTORS
          ------------

                      1          2          3          4          5
                  -20.2542   -11.1107   -11.0518   -11.0505   -11.0499
                     A          A          A          A          A   
    1  C  1  S    0.000000   0.000035  -0.019980   0.000147  -0.002394
    2  C  1  S    0.000001   0.000024  -0.003460  -0.000141  -0.000000
    3  C  1  X    0.000000   0.000014  -0.002427  -0.000092  -0.000053
    4  C  1  Y   -0.000002   0.000004   0.000088  -0.000046  -0.000030
    5  C  1  Z    0.000002  -0.000027  -0.000794  -0.000022  -0.000076
    6  C  2  S    0.000000   0.000016  -0.000398   0.000444  -0.001321
    7  C  2  S    0.000001   0.000007   0.000302   0.003174  -0.004874
    8  C  2  X   -0.000003   0.000030   0.000200   0.000563  -0.000784
    9  C  2  Y   -0.000001  -0.000001  -0.000091   0.002094  -0.003280
   10  C  2  Z    0.000007  -0.000035  -0.000101   0.000732  -0.001123
   11  C  3  S   -0.000006  -0.000327   0.002579  -0.523247   0.843182
   12  C  3  S    0.000023   0.000120   0.000164  -0.020484   0.028122
   13  C  3  X    0.000032  -0.000201   0.000029  -0.001045  -0.002809
   14  C  3  Y    0.000021  -0.000004   0.000022   0.000084   0.000141
   15  C  3  Z   -0.000026   0.000076   0.000033  -0.000363  -0.000549
   16  C  4  S   -0.000023  -0.001850  -0.027867   0.842267   0.523750
   17  C  4  S    0.000263  -0.005561  -0.000942   0.030844   0.016179
   18  C  4  X    0.000011  -0.001871   0.000005   0.000392   0.003010
   19  C  4  Y    0.000428  -0.002394   0.000066  -0.000043  -0.000194
   20  C  4  Z    0.000140   0.002723   0.000228  -0.000125   0.000633
   21  C  5  S    0.000005  -0.000308   0.008882  -0.001058  -0.001513
   22  C  5  S    0.000013   0.000081  -0.007145  -0.005257  -0.003178
   23  C  5  X   -0.000050  -0.000062  -0.000213   0.000642   0.000396
   24  C  5  Y   -0.000016  -0.000019   0.001954  -0.003533  -0.002118
   25  C  5  Z    0.000063   0.000040   0.004314  -0.000207  -0.000132
   26  C  6  S    0.000003  -0.000327   0.991017   0.024868   0.012336
   27  C  6  S    0.000016  -0.000061   0.036981   0.001073   0.000582
   28  C  6  X    0.000010  -0.000017   0.001440   0.000089   0.000073
   29  C  6  Y   -0.000037  -0.000132   0.000720  -0.000005  -0.000037
   30  C  6  Z   -0.000005   0.000004   0.001268   0.000013   0.000028
   31  C  7  S    0.000007  -0.000413  -0.026785  -0.009498  -0.006506
   32  C  7  S    0.000017   0.000122  -0.007299  -0.000569  -0.000340
   33  C  7  X    0.000044  -0.000007   0.002121   0.000118   0.000057
   34  C  7  Y    0.000008  -0.000013   0.002372  -0.000033  -0.000029
   35  C  7  Z   -0.000074   0.000009  -0.003091  -0.000174  -0.000094
   36  C  8  S   -0.000026  -0.000825  -0.001046  -0.000909  -0.000458
   37  C  8  S    0.000374  -0.006033   0.000376   0.000170   0.000133
   38  C  8  X    0.000067   0.001559  -0.000050   0.000005  -0.000022
   39  C  8  Y    0.000481  -0.002131  -0.000168  -0.000086  -0.000040
   40  C  8  Z   -0.000023  -0.003323   0.000110   0.000019   0.000014
   41  C  9  S    0.000557   0.992508   0.000275   0.002220   0.001806
   42  C  9  S   -0.007140   0.033177   0.000121  -0.005024  -0.003040
   43  C  9  X   -0.000403   0.000052  -0.000036   0.001596   0.000961
   44  C  9  Y   -0.006286   0.000400   0.000085   0.001999   0.001196
   45  C  9  Z   -0.000380  -0.000387   0.000160  -0.002630  -0.001568
   46  O 10  S    0.994275   0.000183   0.000006  -0.000012  -0.000018
   47  O 10  S    0.025897  -0.005836  -0.000061   0.000189   0.000169
   48  O 10  X   -0.000346   0.000121   0.000000  -0.000045  -0.000056
   49  O 10  Y   -0.005507   0.001801   0.000039  -0.000110  -0.000098
   50  O 10  Z   -0.000362   0.000142  -0.000011   0.000124   0.000080
   51  H 11  S   -0.000001  -0.000005   0.000332   0.000024  -0.000060
   52  H 12  S    0.000003  -0.000065   0.000126   0.000065  -0.000105
   53  H 13  S   -0.000002   0.000005  -0.000001  -0.000059   0.000085
   54  H 14  S    0.000011  -0.000473  -0.000020   0.003674  -0.005758
   55  H 15  S    0.000002  -0.000058  -0.000032   0.003683  -0.005764
   56  H 16  S   -0.000139  -0.000051   0.000065  -0.005906  -0.003547
   57  H 17  S   -0.000024  -0.000066   0.000075   0.000069   0.000042
   58  H 18  S   -0.000017  -0.000039  -0.006821  -0.000245  -0.000143
   59  H 19  S   -0.000024  -0.000062   0.000277   0.000025   0.000020
   60  H 20  S   -0.000214   0.000022  -0.000032  -0.000044  -0.000029

                      6          7          8          9         10
                  -11.0482   -11.0372   -11.0256   -11.0199   -11.0051
                     A          A          A          A          A   
    1  C  1  S   -0.000162   0.991899  -0.000604   0.002194  -0.008280
    2  C  1  S    0.000344   0.036410   0.000066   0.000195  -0.007915
    3  C  1  X   -0.000114  -0.001559   0.000022  -0.000077   0.002452
    4  C  1  Y    0.000123   0.000902   0.000030  -0.000039  -0.002006
    5  C  1  Z   -0.000196   0.000403  -0.000069  -0.000162  -0.003490
    6  C  2  S    0.000027   0.008952   0.000045  -0.007631   0.992137
    7  C  2  S   -0.000019  -0.007293   0.000016  -0.000740   0.035979
    8  C  2  X    0.000013  -0.002392   0.000006  -0.000598   0.001919
    9  C  2  Y    0.000029   0.002063  -0.000009   0.000096  -0.001009
   10  C  2  Z    0.000010   0.003405   0.000001  -0.000277  -0.000229
   11  C  3  S    0.000583   0.002237  -0.000111   0.000726   0.002282
   12  C  3  S   -0.000004   0.000165   0.000017   0.000160  -0.005710
   13  C  3  X   -0.000019  -0.000111   0.000006  -0.000078   0.000954
   14  C  3  Y    0.000000   0.000010   0.000011   0.000082   0.003940
   15  C  3  Z   -0.000019   0.000102  -0.000010  -0.000052   0.001300
   16  C  4  S    0.010799   0.000586   0.000820   0.002903   0.000342
   17  C  4  S    0.000374   0.000037   0.000234  -0.005753   0.000087
   18  C  4  X   -0.000018   0.000045   0.000047  -0.000758   0.000023
   19  C  4  Y    0.000042  -0.000003  -0.000010   0.004158   0.000068
   20  C  4  Z    0.000135   0.000066  -0.000015   0.000396   0.000033
   21  C  5  S   -0.001451  -0.001884  -0.005649   0.992123   0.007874
   22  C  5  S   -0.000214  -0.000115  -0.000329   0.035935  -0.000213
   23  C  5  X   -0.000127   0.000071  -0.000077  -0.001747   0.000630
   24  C  5  Y   -0.000117  -0.000012  -0.000125  -0.000456  -0.000019
   25  C  5  Z    0.000163  -0.000002   0.000153  -0.001797   0.000153
   26  C  6  S    0.028078   0.020909   0.000673  -0.008083   0.000161
   27  C  6  S   -0.004996  -0.001923   0.000418  -0.007891   0.000153
   28  C  6  X   -0.002157   0.002504   0.000108   0.000145  -0.000021
   29  C  6  Y   -0.002381  -0.000122   0.000042  -0.001647  -0.000023
   30  C  6  Z    0.002754   0.000620  -0.000072  -0.004390  -0.000057
   31  C  7  S    0.991669  -0.000444  -0.015746   0.001689  -0.000028
   32  C  7  S    0.035725   0.000092  -0.008429   0.000119  -0.000013
   33  C  7  X    0.000073  -0.000204  -0.000648  -0.000081  -0.000017
   34  C  7  Y    0.001231   0.000017  -0.004568  -0.000170   0.000030
   35  C  7  Z    0.000223  -0.000096  -0.000482  -0.000204  -0.000009
   36  C  8  S    0.016319   0.000550   0.992026   0.005739  -0.000007
   37  C  8  S   -0.007121   0.000062   0.036417   0.000160  -0.000012
   38  C  8  X    0.000634  -0.000031  -0.000468   0.000016  -0.000000
   39  C  8  Y    0.004435  -0.000014  -0.001498   0.000071   0.000003
   40  C  8  Z    0.000426  -0.000007   0.000278  -0.000171  -0.000002
   41  C  9  S    0.000539  -0.000033   0.001807   0.000386  -0.000017
   42  C  9  S    0.000043   0.000010  -0.006247   0.000070  -0.000003
   43  C  9  X    0.000067  -0.000017  -0.001620  -0.000080  -0.000020
   44  C  9  Y    0.000233  -0.000004   0.001966   0.000106  -0.000011
   45  C  9  Z   -0.000054   0.000001   0.003444   0.000003  -0.000028
   46  O 10  S    0.000014   0.000000  -0.000019   0.000009   0.000000
   47  O 10  S   -0.000127  -0.000002   0.000307  -0.000078   0.000002
   48  O 10  X   -0.000011  -0.000000   0.000046   0.000029   0.000005
   49  O 10  Y    0.000067   0.000002  -0.000165   0.000038  -0.000002
   50  O 10  Z    0.000023  -0.000001  -0.000107  -0.000010   0.000001
   51  H 11  S   -0.000019  -0.006804  -0.000003  -0.000050   0.000152
   52  H 12  S   -0.001058  -0.006804  -0.000185  -0.000032   0.000024
   53  H 13  S    0.000006   0.000053  -0.000002   0.000083  -0.006908
   54  H 14  S    0.000003   0.000007  -0.000025  -0.000070  -0.000091
   55  H 15  S   -0.000002  -0.000114  -0.000003  -0.000018   0.000039
   56  H 16  S   -0.000126  -0.000029  -0.000063   0.000016  -0.000041
   57  H 17  S   -0.000084   0.000013  -0.000014  -0.006872  -0.000086
   58  H 18  S   -0.000127  -0.000027  -0.000084   0.000165  -0.000026
   59  H 19  S   -0.006825   0.000017   0.000215  -0.000117   0.000001
   60  H 20  S    0.000022  -0.000003  -0.006839  -0.000096   0.000001

                     11         12         13         14         15
                   -1.3066    -1.0874    -1.0080    -0.9579    -0.9333
                     A          A          A          A          A   
    1  C  1  S   -0.000732  -0.055541  -0.125478   0.071078  -0.055495
    2  C  1  S    0.001769   0.146030   0.336273  -0.194086   0.157670
    3  C  1  X    0.000297   0.007470  -0.052333   0.035991   0.023916
    4  C  1  Y    0.000416   0.015840   0.043770  -0.022475  -0.015251
    5  C  1  Z    0.000274   0.021308   0.061546  -0.017685  -0.005850
    6  C  2  S   -0.000837  -0.047606  -0.148045   0.068524   0.015441
    7  C  2  S    0.001861   0.119310   0.386553  -0.182474  -0.044131
    8  C  2  X    0.000655   0.027731   0.056149  -0.018381   0.010155
    9  C  2  Y    0.000471  -0.001516  -0.002028   0.019133  -0.062898
   10  C  2  Z    0.000034  -0.013500  -0.036845   0.033205  -0.042617
   11  C  3  S   -0.002627  -0.035500  -0.096555   0.013417   0.089317
   12  C  3  S    0.006701   0.097701   0.269633  -0.034891  -0.261053
   13  C  3  X    0.002364   0.007904  -0.022501   0.033866  -0.007489
   14  C  3  Y    0.000540  -0.018037  -0.054480   0.024990  -0.003967
   15  C  3  Z   -0.000119  -0.005685  -0.023245   0.020798  -0.004819
   16  C  4  S   -0.021858  -0.073464  -0.012628  -0.107556   0.114661
   17  C  4  S    0.055340   0.197568   0.038225   0.305664  -0.333024
   18  C  4  X    0.014123   0.017655  -0.029089   0.029697  -0.017096
   19  C  4  Y    0.016719  -0.037344  -0.004538  -0.052888  -0.042577
   20  C  4  Z   -0.018921  -0.025413   0.007667   0.007424   0.024277
   21  C  5  S   -0.005103  -0.107772  -0.002510  -0.130023  -0.032646
   22  C  5  S    0.011772   0.273145   0.007377   0.353366   0.085286
   23  C  5  X   -0.000389  -0.009946  -0.019465  -0.018385   0.008854
   24  C  5  Y    0.004672   0.009210   0.003270   0.027879  -0.109479
   25  C  5  Z   -0.001986  -0.070768   0.011921  -0.021517  -0.081333
   26  C  6  S   -0.003594  -0.127478   0.017795  -0.046101  -0.124738
   27  C  6  S    0.008537   0.332598  -0.046841   0.122737   0.350410
   28  C  6  X    0.000972   0.017567  -0.048700  -0.011059   0.007827
   29  C  6  Y    0.003095   0.056384  -0.023806   0.004769  -0.014513
   30  C  6  Z    0.000568   0.025186   0.022720   0.121631   0.014088
   31  C  7  S   -0.006728  -0.111060   0.086029   0.098475  -0.023513
   32  C  7  S    0.016038   0.284051  -0.228356  -0.267984   0.067424
   33  C  7  X   -0.000219  -0.025151  -0.009053  -0.024365  -0.041000
   34  C  7  Y    0.007031   0.021633  -0.052500  -0.088894  -0.106428
   35  C  7  Z    0.002535   0.047533  -0.012725   0.025578   0.029389
   36  C  8  S   -0.024624  -0.082933   0.088346   0.116044   0.073967
   37  C  8  S    0.058707   0.210262  -0.231657  -0.311383  -0.201726
   38  C  8  X   -0.011844  -0.022044   0.011748   0.006053   0.017962
   39  C  8  Y    0.014223  -0.059066   0.050612   0.060879  -0.021847
   40  C  8  Z    0.024138   0.017468  -0.007015   0.019071  -0.038116
   41  C  9  S   -0.128055  -0.035444   0.022694  -0.000711   0.078950
   42  C  9  S    0.297754   0.096864  -0.063916   0.001462  -0.230049
   43  C  9  X    0.009658  -0.005828  -0.023196  -0.050917   0.025313
   44  C  9  Y    0.150454  -0.089450   0.043918  -0.006438   0.136035
[...]
 19   H            X -0.01902727 -0.00048347  0.00700699 -0.08440548 -0.01815157
                   Y -0.05387480 -0.00235187  0.02105326 -0.07168988 -0.01166524
                   Z  0.03466724  0.00093103 -0.00215608  0.14614158  0.03153044
 20   H            X  0.00541622  0.00042865 -0.00021475 -0.04842596 -0.02311116
                   Y  0.01138209  0.00004712 -0.00085767  0.00196893  0.05928089
                   Z -0.01328151  0.00058360  0.02031630  0.13045072  0.07696236

 TRANS. SAYVETZ    X -0.00000064 -0.00000003 -0.00000185 -0.00000064 -0.00000062
                   Y -0.00000238 -0.00000001 -0.00000176 -0.00000057  0.00000055
                   Z  0.00000244 -0.00000071  0.00000096  0.00000050  0.00000050
               TOTAL  0.00000347  0.00000071  0.00000273  0.00000099  0.00000097

   ROT. SAYVETZ    X  0.00109761  0.00114448 -0.00361759  0.00062692  0.00048195
                   Y  0.00486916 -0.00367669 -0.00697690  0.00060246 -0.00006055
                   Z -0.00228184 -0.00310180  0.00997859 -0.00161013 -0.00134158
               TOTAL  0.00548820  0.00494460  0.01270183  0.00182990  0.00142681

                           51          52          53          54          55
       FREQUENCY:      3634.24     3638.62     3689.39     3697.19     3698.90  
        SYMMETRY:         A           A           A           A           A   
    REDUCED MASS:      1.06237     1.06453     1.09084     1.09395     1.09617
    IR INTENSITY:      0.02563     0.10536     0.12812     0.07548     0.09880

  1   C            X  0.00101693 -0.00006902 -0.00114804  0.00018056 -0.00334644
                   Y -0.02828860  0.01858406  0.00221405  0.00020126  0.00172691
                   Z -0.04894969  0.03332430  0.00584860 -0.00221690  0.01097156
  2   C            X  0.00226690  0.00138724  0.00740100 -0.00650903  0.03787203
                   Y  0.00668051 -0.00507301  0.00803969 -0.00751124  0.04176727
                   Z -0.00715313 -0.00546191 -0.01116191  0.00968170 -0.05749841
  3   C            X -0.00624636 -0.01065154 -0.00003290  0.00048633 -0.00181090
                   Y  0.03595831  0.05669474 -0.00619919  0.00325212 -0.01075268
                   Z  0.00097939  0.00047411  0.00123127  0.00030093  0.00341397
  4   C            X  0.00022511  0.00076926  0.00521548  0.00462490 -0.00100136
                   Y -0.00111705 -0.00111316 -0.02300719 -0.02338866  0.00324602
                   Z -0.00331294 -0.00033612 -0.05216338 -0.04693364  0.00582404
  5   C            X -0.00070916 -0.00022688 -0.00779898  0.00063978  0.00034831
                   Y -0.00229311 -0.00002456 -0.02443425  0.00880690  0.00201440
                   Z  0.00296018  0.00100294  0.03516112 -0.00369810 -0.00190629
  6   C            X -0.00048023 -0.00074637 -0.00616797  0.01055442  0.00311008
                   Y  0.00333071  0.00061345  0.03574226 -0.05549844 -0.01817651
                   Z  0.00027712 -0.00091287  0.00150091 -0.00546337 -0.00249759
  7   C            X  0.00057487 -0.00009987  0.00220858 -0.00666632 -0.00317641
                   Y -0.00038691 -0.00010808 -0.00544100  0.01401385  0.00626348
                   Z -0.00034572 -0.00006866 -0.00732027  0.02075287  0.00973916
  8   C            X -0.00019477 -0.00008593 -0.00207733  0.00628959  0.00277761
                   Y -0.00033449 -0.00017081 -0.00195722  0.00652109  0.00286502
                   Z  0.00043455  0.00007380  0.00338640 -0.01055595 -0.00471963
  9   C            X  0.00021817  0.00022607 -0.00064255 -0.00098379 -0.00000818
                   Y -0.00016997  0.00003286 -0.00051729 -0.00067325  0.00005829
                   Z  0.00029605  0.00007612  0.00101701  0.00181011  0.00011456
 10   O            X -0.00000462  0.00001383  0.00002678  0.00010867 -0.00001039
                   Y  0.00001979 -0.00001982  0.00003094  0.00017966 -0.00000731
                   Z -0.00001984  0.00001491 -0.00006891 -0.00018490 -0.00001826
 11   H            X  0.13129054 -0.08657753 -0.00851459  0.00164052 -0.00724648
                   Y  0.55783786 -0.36901264 -0.04430368  0.00934502 -0.03898551
                   Z  0.06254022 -0.04091347 -0.00471853  0.00125321 -0.00466679
 12   H            X -0.12091002  0.07975551  0.01484519 -0.00499646  0.01996783
                   Y -0.25778227  0.17219412  0.02737936 -0.01137934  0.04663865
                   Z  0.47335433 -0.31760758 -0.04927947  0.02006648 -0.08078640
 13   H            X -0.06991405 -0.01374102 -0.07648643  0.06899005 -0.40156310
                   Y -0.08198419 -0.01883895 -0.09026496  0.08098235 -0.47132719
                   Z  0.11466990  0.02158304  0.12520102 -0.11227210  0.65344655
 14   H            X -0.08223063 -0.12695531  0.01609976 -0.00549948  0.02100561
                   Y -0.22283778 -0.35002848  0.03741626 -0.01361260  0.05657481
                   Z  0.27997678  0.43838920 -0.04682137  0.01748109 -0.07497322
 15   H            X  0.16519371  0.25501783 -0.01709929  0.00663218 -0.01363325
                   Y -0.16767995 -0.25870290  0.01917420 -0.00772924  0.01641400
                   Z -0.28044596 -0.43383214  0.03240138 -0.01332980  0.02644668
 16   H            X -0.00122247 -0.00013148 -0.04818334 -0.04430387  0.00621327
                   Y  0.01686874  0.00240303  0.26971873  0.24537823 -0.03073317
                   Z  0.03831947  0.00538954  0.59072115  0.53346597 -0.06638624
 17   H            X  0.00805950  0.00176821  0.08421973 -0.01515217 -0.00615995
                   Y  0.02636751  0.00570893  0.29492611 -0.05443070 -0.02140464
                   Z -0.03613128 -0.00795904 -0.40440420  0.07192827  0.02908815
 18   H            X  0.00923368  0.00317237  0.07971110 -0.12235837 -0.03872042
                   Y -0.03857692 -0.01232367 -0.40784123  0.62788129  0.20276293
                   Z -0.00221590 -0.00051866 -0.02926973  0.04698482  0.01582303
 19   H            X -0.00256173 -0.00036043 -0.02978086  0.08310271  0.03816155
                   Y  0.00416413  0.00087075  0.05126993 -0.14120428 -0.06492739
                   Z  0.00806797  0.00107613  0.08964758 -0.24681599 -0.11359341
 20   H            X  0.00276637  0.00091145  0.02099319 -0.07237442 -0.03179886
                   Y  0.00400272  0.00128765  0.02730559 -0.09182259 -0.04033979
                   Z -0.00515873 -0.00128014 -0.03447734  0.11665676  0.05118820

 TRANS. SAYVETZ    X -0.00000055 -0.00000029  0.00000063 -0.00000031 -0.00000093
                   Y  0.00000016 -0.00000009 -0.00000059 -0.00000001 -0.00000008
                   Z -0.00000126 -0.00000064  0.00000016  0.00000030 -0.00000058
               TOTAL  0.00000139  0.00000071  0.00000088  0.00000043  0.00000110

   ROT. SAYVETZ    X  0.00008687  0.00035028  0.00003678  0.00034830  0.00000754
                   Y -0.00037998  0.00042877  0.00059481  0.00062480  0.00006698
                   Z -0.00005850 -0.00087663  0.00012279 -0.00083070 -0.00007693
               TOTAL  0.00039415  0.00103683  0.00060847  0.00109624  0.00010228

                           56          57          58          59          60
       FREQUENCY:      3704.96     3715.79     3736.11     3785.64     3787.44  
        SYMMETRY:         A           A           A           A           A   
    REDUCED MASS:      1.09177     1.10089     1.10599     1.11703     1.11744
    IR INTENSITY:      0.49666     0.07570     0.06441     0.00067     0.01689

  1   C            X -0.00035501 -0.00008251  0.00005686 -0.02090423  0.01257199
                   Y  0.00086157 -0.00127349  0.00028867 -0.06879267  0.04180994
                   Z  0.00058231  0.00102287 -0.00019994  0.03672052 -0.02165684
  2   C            X  0.00363947  0.00337466 -0.00005541 -0.00065754  0.00264508
                   Y  0.00371793  0.00345860 -0.00005883  0.00026026  0.00292296
                   Z -0.00542790 -0.00469080  0.00005081  0.00126570 -0.00345273
  3   C            X  0.00002970 -0.00021181  0.00004126  0.01931111  0.03218204
                   Y -0.00048472 -0.00045099  0.00020157  0.00393533  0.00571025
                   Z  0.00061682  0.00142273 -0.00023133 -0.04455723 -0.07383255
  4   C            X  0.00135465  0.00331764 -0.00042580  0.00001476 -0.00025075
                   Y -0.00751778 -0.01614281  0.00144901 -0.00019052 -0.00036412
                   Z -0.01346030 -0.02496381  0.00256547  0.00001716 -0.00039989
  5   C            X  0.00238040  0.00910076 -0.00078195 -0.00006384  0.00005858
                   Y  0.01236036  0.04033113 -0.00335555 -0.00001399  0.00039304
                   Z -0.01354377 -0.05674139  0.00474295  0.00027558 -0.00057922
  6   C            X  0.00361725 -0.00673583  0.00022548  0.00022133 -0.00037871
                   Y -0.02566838  0.03947373 -0.00675282 -0.00020881  0.00059337
                   Z  0.00017825  0.00732025  0.00049115 -0.00025989  0.00016707
  7   C            X  0.01833653 -0.00178493  0.01162535 -0.00008314  0.00005396
                   Y -0.02962083 -0.00005350 -0.02989113 -0.00023449  0.00032641
                   Z -0.05346906  0.00397229 -0.03822364 -0.00042640  0.00039243
  8   C            X -0.01794936  0.00510840  0.03146591 -0.00008021  0.00009930
                   Y -0.01965243  0.00691372  0.04700390 -0.00004293 -0.00013557
                   Z  0.03000733 -0.00805321 -0.04785664  0.00001117 -0.00000213
  9   C            X  0.00049377 -0.00056981 -0.00066126  0.00007166  0.00014400
                   Y -0.00024857 -0.00062801  0.00118654  0.00003727 -0.00003661
                   Z -0.00122435  0.00091557  0.00196613  0.00007894  0.00009175
 10   O            X -0.00008174  0.00005957  0.00003674  0.00001410  0.00002333
                   Y -0.00005618  0.00016037 -0.00028210 -0.00001079 -0.00001085
                   Z  0.00014367 -0.00006621 -0.00020583 -0.00000165  0.00001080
 11   H            X -0.00137500  0.00120493 -0.00052693  0.12819033 -0.07780842
                   Y -0.00713188  0.00633295 -0.00174176  0.54104855 -0.32764307
                   Z -0.00077053  0.00063770 -0.00012771  0.06421892 -0.03845463
 12   H            X  0.00028372  0.00265964 -0.00039101  0.12260825 -0.07370857
                   Y  0.00187269  0.00658886 -0.00188343  0.26773527 -0.15991936
                   Z -0.00334440 -0.01090496  0.00304211 -0.49900029  0.29837578
 13   H            X -0.03772175 -0.03367142  0.00029275  0.00714175 -0.03002246
                   Y -0.04418277 -0.03953090  0.00050725  0.00381103 -0.03407423
                   Z  0.06110441  0.05482430 -0.00057650 -0.01236611  0.04518232
 14   H            X  0.00161882  0.00271312 -0.00103834 -0.07331736 -0.12108767
                   Y  0.00394692  0.00713873 -0.00194885 -0.20881076 -0.34310047
                   Z -0.00565497 -0.00990055  0.00254657  0.26029909  0.42713121
 15   H            X -0.00032557  0.00224849  0.00005049 -0.15679375 -0.26072070
                   Y  0.00009853 -0.00266557  0.00000829  0.16080734  0.26649925
                   Z  0.00022152 -0.00442896 -0.00009768  0.26427957  0.43919392
 16   H            X -0.01286922 -0.02435026  0.00206666 -0.00000282 -0.00013582
                   Y  0.07014241  0.13188000 -0.01179067  0.00150817  0.00397593
                   Z  0.15313315  0.28369932 -0.02531820  0.00309834  0.00865418
 17   H            X -0.03346940 -0.12384937  0.00941648  0.00040611 -0.00130528
                   Y -0.12268157 -0.44565550  0.03534906  0.00123699 -0.00439910
                   Z  0.16637925  0.61159797 -0.04815653 -0.00191476  0.00593769
 18   H            X -0.05411413  0.08145800 -0.01194062 -0.00192968  0.00206819
                   Y  0.28342754 -0.42435783  0.06617649  0.00693505 -0.00884473
                   Z  0.01912627 -0.03327253  0.00414585  0.00042854 -0.00053441
 19   H            X -0.20586528  0.01300560 -0.14443246 -0.00129869  0.00139408
                   Y  0.34162797 -0.01941167  0.24278960  0.00225709 -0.00226688
                   Z  0.60344781 -0.03656131  0.42435149  0.00343499 -0.00354291
 20   H            X  0.20764142 -0.05949044 -0.34809980  0.00061125 -0.00015901
                   Y  0.26263351 -0.07573121 -0.44290735  0.00056981  0.00008118
                   Z -0.33222864  0.09547166  0.55665194 -0.00059919 -0.00009885

 TRANS. SAYVETZ    X -0.00000064 -0.00000041 -0.00000002  0.00000010 -0.00000016
                   Y  0.00000038 -0.00000001 -0.00000061 -0.00000002  0.00000006
                   Z -0.00000059  0.00000062 -0.00000010  0.00000006 -0.00000004
               TOTAL  0.00000095  0.00000075  0.00000062  0.00000012  0.00000017

   ROT. SAYVETZ    X  0.00011090 -0.00005595  0.00001015 -0.00016731  0.00010360
                   Y  0.00018172  0.00026621 -0.00003912 -0.00019955 -0.00114593
                   Z -0.00034353  0.00025894 -0.00005723  0.00061668 -0.00044461
               TOTAL  0.00040415  0.00037556  0.00007006  0.00066941  0.00123352

 REFERENCE ON SAYVETZ CONDITIONS - A. SAYVETZ, J.CHEM.PHYS., 7, 383-389(1939).

 NOTE - THE MODES J,K ARE ORTHONORMALIZED ACCORDING TO
 SUM ON I   M(I) * (X(I,J)*X(I,K) + Y(I,J)*Y(I,K) + Z(I,J)*Z(I,K)) = DELTA(J,K)

  MODE FREQ(CM**-1)  SYMMETRY  RED. MASS  IR INTENS.
     1    1104.425    A        9.338604    0.024785
     2       2.251    A        4.786130    0.014708
     3       0.012    A        6.704085    0.000000
     4       0.004    A        6.703218    0.000000
     5       0.032    A        6.740937    0.000003
     6      30.044    A        5.904927    0.016292
     7      36.752    A        4.149249    0.001120
     8     110.785    A        4.128396    0.027998
     9     202.402    A        3.551548    0.015112
    10     257.711    A        4.162558    0.029676
    11     373.622    A        5.304520    0.031330
    12     409.778    A        5.706566    0.167910
    13     455.992    A        1.989227    0.060123
    14     487.065    A        3.522618    0.073017
    15     497.118    A        4.525790    0.137444
    16     536.762    A        1.988462    0.232541
    17     570.830    A        2.524007    0.188361
    18     603.774    A        5.427927    0.018077
    19     674.683    A        5.936392    0.036557
    20     837.020    A        3.391176    0.044398
    21     852.811    A        4.076443    0.044347
    22     924.717    A        1.632295    1.208166
    23     935.513    A        1.775711    0.151730
    24     971.028    A        1.614811    0.881729
    25     995.085    A        1.366244    0.225143
    26    1023.775    A        1.420063    0.043919
    27    1084.986    A        1.837843    0.188874
    28    1122.390    A        2.885680    0.002647
    29    1171.511    A        1.974982    0.073482
    30    1201.679    A        1.124725    0.032831
    31    1209.640    A        1.271984    0.004256
    32    1228.720    A        1.505106    0.137409
    33    1260.369    A        1.270816    0.226079
    34    1278.540    A        1.150253    0.414484
    35    1305.294    A        1.232610    0.016709
    36    1328.588    A        1.261438    0.107199
    37    1355.661    A        1.267424    0.029816
    38    1358.630    A        1.122803    0.019625
    39    1419.225    A        1.832380    0.645777
    40    1471.272    A        1.331172    0.101331
    41    1484.769    A        1.781079    0.004771
    42    1600.455    A        1.603790    0.151514
    43    1639.579    A        1.714633    0.150640
    44    1668.182    A        1.506922    0.060153
    45    1726.992    A        2.571270    0.328666
    46    1758.498    A        1.889162    0.049748
    47    1811.410    A        1.277138    0.197213
    48    1863.008    A        2.586165    0.054634
    49    2004.976    A        7.009556    0.061588
    50    2075.481    A       10.554401    1.843529
    51    3634.239    A        1.062367    0.025630
    52    3638.616    A        1.064534    0.105357
    53    3689.392    A        1.090840    0.128121
    54    3697.186    A        1.093952    0.075483
    55    3698.895    A        1.096170    0.098802
    56    3704.959    A        1.091772    0.496661
    57    3715.786    A        1.100890    0.075699
    58    3736.110    A        1.105990    0.064411
    59    3785.644    A        1.117034    0.000665
    60    3787.445    A        1.117437    0.016888

     -------------------------------
     THERMOCHEMISTRY AT T=  298.15 K
     -------------------------------

 USING IDEAL GAS, RIGID ROTOR, HARMONIC NORMAL MODE APPROXIMATIONS.
 P=  1.01325E+05 PASCAL.
 ALL FREQUENCIES ARE SCALED BY   1.00000
 THE MOMENTS OF INERTIA ARE (IN AMU*BOHR**2)
            865.47251          1321.78683          1661.07062
 THE ROTATIONAL SYMMETRY NUMBER IS  1.0
 THE ROTATIONAL CONSTANTS ARE (IN GHZ)
      2.08336     1.36413     1.08550
   1 IMAGINARY FREQUENCY VIBRATION(S) IS(ARE) EXCLUDED
     FROM THE FOLLOWING THERMOCHEMICAL ANALYSIS.
      8 -     60 VIBRATIONAL MODES ARE USED IN THERMOCHEMISTRY.
 THE HARMONIC ZERO POINT ENERGY IS (SCALED BY   1.000)
        0.191910 HARTREE/MOLECULE    42119.298826 CM**-1/MOLECULE 
      120.425239 KCAL/MOL              503.859201 KJ/MOL

               Q               LN Q
 ELEC.     1.00000E+00       0.000000
 TRANS.    6.10192E+07      17.926699
 ROT.      4.93450E+05      13.109176
 VIB.      1.47865E+01       2.693715
 TOT.      4.45220E+14      33.729590

              E         H         G         CV        CP        S
           KJ/MOL    KJ/MOL    KJ/MOL   J/MOL-K   J/MOL-K   J/MOL-K
 ELEC.      0.000     0.000     0.000     0.000     0.000     0.000
 TRANS.     3.718     6.197   -44.439    12.472    20.786   169.836
 ROT.       3.718     3.718   -32.497    12.472    12.472   121.467
 VIB.     515.180   515.180   497.182    94.233    94.233    60.368
 TOTAL    522.617   525.096   420.246   119.176   127.490   351.671
 VIB. THERMAL CORRECTION E(T)-E(0) = H(T)-H(0) =     11321.142 J/MOL

              E         H         G         CV        CP        S
         KCAL/MOL  KCAL/MOL  KCAL/MOL CAL/MOL-K CAL/MOL-K CAL/MOL-K
 ELEC.      0.000     0.000     0.000     0.000     0.000     0.000
 TRANS.     0.889     1.481   -10.621     2.981     4.968    40.592
 ROT.       0.889     0.889    -7.767     2.981     2.981    29.031
 VIB.     123.131   123.131   118.829    22.522    22.522    14.428
 TOTAL    124.909   125.501   100.441    28.484    30.471    84.051
 VIB. THERMAL CORRECTION E(T)-E(0) = H(T)-H(0) =      2705.818 CAL/MOL

     *******************************************************
     * THIS IS NOT A STATIONARY POINT ON THE MOLECULAR PES *
     *     THE VIBRATIONAL ANALYSIS IS NOT VALID !!!       *
     *******************************************************
 ......END OF NORMAL COORDINATE ANALYSIS......
 STEP CPU TIME =     0.01 TOTAL CPU TIME =        146.3 (      2.4 MIN)
 TOTAL WALL CLOCK TIME=        146.9 SECONDS, CPU UTILIZATION IS    99.58%
               580000  WORDS OF DYNAMIC MEMORY USED
 EXECUTION OF GAMESS TERMINATED NORMALLY Sat Nov 13 04:05:59 2021
 DDI: 263640 bytes (0.3 MB / 0 MWords) used by master data server.

 ----------------------------------------
 CPU timing information for all processes
 ========================================
 0: 143.655 + 2.634 = 146.290
 ----------------------------------------
 ddikick.x: exited gracefully.
----- accounting info -----
Files used on the master node chemcompute-node-0.novalocal were:
-rw-r--r--. 1 chemcomp chemcomp     1346 Nov 13 04:03 /scratch/305660/341536.F05
-rw-rw-r--. 1 chemcomp chemcomp 17821584 Nov 13 04:05 /scratch/305660/341536.F08
-rw-rw-r--. 1 chemcomp chemcomp 85196800 Nov 13 04:05 /scratch/305660/341536.F10
-rw-rw-r--. 1 chemcomp chemcomp   878880 Nov 13 04:05 /scratch/305660/341536.F18
Sat Nov 13 04:06:03 UTC 2021
0.139u 0.109s 2:30.82 0.1%	0+0k 8+216io 0pf+0w
Finishing Up...
Looking for IR data...
Looking for Raman data...
vibramans not found
Looking for thermodynamics data...
Looking for UV-Vis data...
305660
