----- GAMESS execution script 'rungms' -----
This job is running on host chemcompute-node-0.novalocal
under operating system Linux at Mon Nov 15 03:12:09 UTC 2021
SLURM has assigned the following compute nodes to this run:
chemcompute-node-0
Available scratch disk space (Kbyte units) at beginning of the job is
Filesystem     1K-blocks     Used Available Use% Mounted on
/dev/sda1       62903276 17777452  45125824  29% /
GAMESS temporary binary files will be written to /scratch/306631
GAMESS supplementary output files will be written to /data/slurm/342645
Copying input file 342645.inp to your run's scratch directory...
The generated host list is
chemcompute-node-0.novalocal

 Distributed Data Interface kickoff program.
 Initiating 1 compute processes on 1 nodes to run the following command:
 /data/gamess-2019R1-ddi/gamess.00.x 342645 

          ******************************************************
          *         GAMESS VERSION = 30 JUN 2019 (R1)          *
          *             FROM IOWA STATE UNIVERSITY             *
          * M.W.SCHMIDT, K.K.BALDRIDGE, J.A.BOATZ, S.T.ELBERT, *
          *   M.S.GORDON, J.H.JENSEN, S.KOSEKI, N.MATSUNAGA,   *
          *          K.A.NGUYEN, S.J.SU, T.L.WINDUS,           *
          *       TOGETHER WITH M.DUPUIS, J.A.MONTGOMERY       *
          *         J.COMPUT.CHEM.  14, 1347-1363(1993)        *
          **************** 64 BIT LINUX VERSION ****************

  SINCE 1993, STUDENTS AND POSTDOCS WORKING AT IOWA STATE UNIVERSITY
  AND ALSO IN THEIR VARIOUS JOBS AFTER LEAVING ISU HAVE MADE IMPORTANT
  CONTRIBUTIONS TO THE CODE:
     IVANA ADAMOVIC, CHRISTINE AIKENS, YURI ALEXEEV, POOJA ARORA,
     ANDREY ASADCHEV, ROB BELL, PRADIPTA BANDYOPADHYAY, JONATHAN BENTZ,
     COLLEEN BERTONI, BRETT BODE, KURT BRORSEN, CALEB CARLIN, GALINA CHABAN,
     WEI CHEN, CHEOL HO CHOI, PAUL DAY, ALBERT DEFUSCO, NUWAN DESILVA,
     TIM DUDLEY, DMITRI FEDOROV, ALEX FINDLATER, GRAHAM FLETCHER, 
     MARK FREITAG, KURT GLAESEMANN, ANASTASIA GUNINA,
     DAN KEMP, GRANT MERRILL, NORIYUKI MINEZAWA, JONATHAN MULLIN,
     TAKESHI NAGATA, SEAN NEDD, HEATHER NETZLOFF, BOSILJKA NJEGIC, RYAN OLSON,
     MIKE PAK, BUU PHAM,
     SPENCER PRUITT, LUKE ROSKOP, JIM SHOEMAKER, LYUDMILA SLIPCHENKO,
     TONY SMITH, SAROM SOK LEANG, JIE SONG, TETSUYA TAKETSUGU, SIMON WEBB,
     PENG XU, SOOHAENG YOO, FEDERICO ZAHARIEV

  ADDITIONAL CODE HAS BEEN PROVIDED BY COLLABORATORS IN OTHER GROUPS:
     IOWA STATE UNIVERSITY:
          JOE IVANIC, AARON WEST, LAIMUTIS BYTAUTAS, KLAUS RUEDENBERG
     UNIVERSITY OF TOKYO: KIMIHIKO HIRAO, TAKAHITO NAKAJIMA,
          TAKAO TSUNEDA, MUNEAKI KAMIYA, SUSUMU YANAGISAWA,
          KIYOSHI YAGI, MAHITO CHIBA, SEIKEN TOKURA, NAOAKI KAWAKAMI
     UNIVERSITY OF AARHUS: FRANK JENSEN
     UNIVERSITY OF IOWA: VISVALDAS KAIRYS, HUI LI
     NATIONAL INST. OF STANDARDS AND TECHNOLOGY: WALT STEVENS, DAVID GARMER
     UNIVERSITY OF PISA: BENEDETTA MENNUCCI, JACOPO TOMASI
     UNIVERSITY OF MEMPHIS: HENRY KURTZ, PRAKASHAN KORAMBATH
     UNIVERSITY OF ALBERTA: TOBY ZENG, MARIUSZ KLOBUKOWSKI
     UNIVERSITY OF NEW ENGLAND: MARK SPACKMAN
     MIE UNIVERSITY: HIROAKI UMEDA
     NAT. INST. OF ADVANCED INDUSTRIAL SCIENCE AND TECHNOLOGY: KAZUO KITAURA
     MICHIGAN STATE UNIVERSITY:
          KAROL KOWALSKI, MARTA WLOCH, JEFFREY GOUR, JESSE LUTZ,
          WEI LI, JUN SHEN, J. EMILIANO DEUSTUA, PIOTR PIECUCH
     UNIVERSITY OF MINNESOTA:
          YINAN SHU
     UNIVERSITY OF SILESIA: MONIKA MUSIAL, STANISLAW KUCHARSKI
     FACULTES UNIVERSITAIRES NOTRE-DAME DE LA PAIX:
          OLIVIER QUINET, BENOIT CHAMPAGNE
     UNIVERSITY OF CALIFORNIA - SANTA BARBARA: BERNARD KIRTMAN
     INSTITUTE FOR MOLECULAR SCIENCE:
          KAZUYA ISHIMURA, MICHIO KATOUDA, AND SHIGERU NAGASE
     UNIVERSITY OF NOTRE DAME: ANNA POMOGAEVA, DAN CHIPMAN
     KYUSHU UNIVERSITY:
          HARUYUKI NAKANO,
          FENG LONG GU, JACEK KORCHOWIEC, MARCIN MAKOWSKI, AND YURIKO AOKI,
          HIROTOSHI MORI AND EISAKU MIYOSHI
     PENNSYLVANIA STATE UNIVERSITY:
          TZVETELIN IORDANOV, CHET SWALINA, JONATHAN SKONE,
          SHARON HAMMES-SCHIFFER
     WASEDA UNIVERSITY:
          MASATO KOBAYASHI, TOMOKO AKAMA, TSUGUKI TOUMA,
          TAKESHI YOSHIKAWA, YASUHIRO IKABATA, JUNJI SEINO,
          YUYA NAKAJIMA, HIROMI NAKAI
     NANJING UNIVERSITY: SHUHUA LI
     UNIVERSITY OF NEBRASKA:
          PEIFENG SU, DEJUN SI, NANDUN THELLAMUREGE, YALI WANG, HUI LI
     UNIVERSITY OF ZURICH: ROBERTO PEVERATI, KIM BALDRIDGE
     N. COPERNICUS UNIVERSITY AND JACKSON STATE UNIVERSITY:
          MARIA BARYSZ
     UNIVERSITY OF COPENHAGEN: Jimmy Kromann, CASPER STEINMANN
     TOKYO INSTITUTE OF TECHNOLOGY: HIROYA NAKATA
     NAGOYA UNIVERSITY: YOSHIO NISHIMOTO, STEPHAN IRLE
     MOSCOW STATE UNIVERSITY: VLADIMIR MIRONOV
     A.N.NESMEYANOV INSTITUTE OF ORGANOELEMENT COMPOUNDS OF RUSSIAN ACADEMY OF SCIENCES:
          IGOR S. GERASIMOV

 EXECUTION OF GAMESS BEGUN Mon Nov 15 03:12:09 2021

            ECHO OF THE FIRST FEW INPUT CARDS -
 INPUT CARD>!File created by the GAMESS Input Deck Generator Plugin for Avogadro            
 INPUT CARD> $BASIS GBASIS=STO NGAUSS=3 $END                                                
 INPUT CARD> $CONTRL SCFTYP=RHF RUNTYP=OPTIMIZE NZVAR=1 mult=1  ICHARG=-1 $END              
 INPUT CARD> $STATPT hssend=.t. OPTTOL=0.0005 NSTEP=50 $END                                 
 INPUT CARD> $STATPT HESS=calc ihrep=5 $END                                                 
 INPUT CARD> $FORCE nvib=2 $END                                                             
 INPUT CARD> $ZMAT DLC=.t. auto=.t. nonvdw(1)=9,12,6,12 $END                                
 INPUT CARD> $ZMAT IFZMAT(1)=1,9,12,1,6,12 fvalue(1)=1.99,1.97 $END                         
 INPUT CARD>                                                                                
 INPUT CARD> $DATA                                                                          
 INPUT CARD>Title                                                                           
 INPUT CARD>C1                                                                              
 INPUT CARD>C     6.0     0.30406299     2.79894400    -0.17839099                          
 INPUT CARD>C     6.0     1.54582596     1.99263597     0.13823700                          
 INPUT CARD>C     6.0    -0.79371297     1.86848795     0.27166700                          
 INPUT CARD>H     1.0     0.22722800     2.90596890    -1.28555501                          
 INPUT CARD>H     1.0     0.27995700     3.81015992     0.28010499                          
 INPUT CARD>C     6.0    -0.33011201     0.49787301    -0.23650400                          
 INPUT CARD>H     1.0    -1.79781699     2.16181588    -0.10060700                          
 INPUT CARD>H     1.0    -0.81927502     1.86518502     1.38492501                          
 INPUT CARD>C     6.0     1.13284397     0.58871102    -0.29580000                          
 INPUT CARD>H     1.0     1.77684796     1.99621105     1.22648501                          
 INPUT CARD>H     1.0     2.41306996     2.38991094    -0.43046200                          
 INPUT CARD>Br    35.0     0.51239097    -0.56207597     1.19969594                         
 INPUT CARD>H     1.0    -0.60964400     0.20075800    -1.26955903                          
 INPUT CARD>H     1.0     1.85804904    -0.10385500    -0.77186602                          
 INPUT CARD> $END                                                                           
    1000000 WORDS OF MEMORY AVAILABLE

     BASIS OPTIONS
     -------------
     GBASIS=STO          IGAUSS=       3      POLAR=NONE    
     NDFUNC=       0     NFFUNC=       0     DIFFSP=       F
     NPFUNC=       0      DIFFS=       F     BASNAM=        


     RUN TITLE
     ---------
 Title                                                                           

 THE POINT GROUP OF THE MOLECULE IS C1      
 THE ORDER OF THE PRINCIPAL AXIS IS     0

 ATOM      ATOMIC                      COORDINATES (BOHR)
           CHARGE         X                   Y                   Z
 C           6.0     0.5745957341        5.2892372150       -0.3371100898
 C           6.0     2.9211874891        3.7655359766        0.2612300514
 C           6.0    -1.4999000262        3.5309302369        0.5133761899
 H           1.0     0.4293986567        5.4914849498       -2.4293467110
 H           1.0     0.5290420183        7.2001582182        0.5293216789
 C           6.0    -0.6238212442        0.9408435656       -0.4469277550
 H           1.0    -3.3973814872        4.0852396491       -0.1901196624
 H           1.0    -1.5482052964        3.5246886042        2.6171287824
 C           6.0     2.1407646901        1.1125025138       -0.5589809472
 H           1.0     3.3577557662        3.7722918982        2.3177205969
 H           1.0     4.5600410136        4.5162768117       -0.8134552281
 BR         35.0     0.9682785319       -1.0621695676        2.2670965952
 H           1.0    -1.1520601101        0.3793776098       -2.3991186919
 H           1.0     3.5112035573       -0.1962574925       -1.4586152770

          INTERNUCLEAR DISTANCES (ANGS.)
          ------------------------------

                1 C          2 C          3 C          4 H          5 H     

   1 C       0.0000000    1.5140546 *  1.5077840 *  1.1149754 *  1.1105662 *
   2 C       1.5140546 *  0.0000000    2.3466271 *  2.1447754 *  2.2194468 *
   3 C       1.5077840 *  2.3466271 *  0.0000000    2.1315787 *  2.2187673 *
   4 H       1.1149754 *  2.1447754 *  2.1315787 *  0.0000000    1.8087656 *
   5 H       1.1105662 *  2.2194468 *  2.2187673 *  1.8087656 *  0.0000000  
   6 C       2.3875684 *  2.4277336 *  1.5335413 *  2.6851558 *  3.4073910  
   7 H       2.1976993 *  3.3564291    1.1103396 *  2.4614371 *  2.6793888 *
   8 H       2.1395680 *  2.6765981 *  1.1135563 *  3.0512068    2.4923615 *
   9 C       2.3634281 *  1.5264166 *  2.3814847 *  2.6775809 *  3.3818362  
  10 H       2.1879562 *  1.1125051 *  2.7451364 *  3.0885800    2.5350992 *
  11 H       2.1630437 *  1.1105666 *  3.3239019    2.4032072 *  2.6593577 *
  12 BR      3.6385408    2.9531739 *  2.9111486 *  4.2761110    4.4739378  
  13 H       2.9624447 *  3.1366809    2.2782849 *  2.8317444 *  4.0274844  
  14 H       3.3456430    2.3067391 *  3.4656803    3.4615739    4.3493138  

                6 C          7 H          8 H          9 C         10 H     

   1 C       2.3875684 *  2.1976993 *  2.1395680 *  2.3634281 *  2.1879562 *
   2 C       2.4277336 *  3.3564291    2.6765981 *  1.5264166 *  1.1125051 *
   3 C       1.5335413 *  1.1103396 *  1.1135563 *  2.3814847 *  2.7451364 *
   4 H       2.6851558 *  2.4614371 *  3.0512068    2.6775809 *  3.0885800  
   5 H       3.4073910    2.6793888 *  2.4923615 *  3.3818362    2.5350992 *
   6 C       0.0000000    2.2229107 *  2.1766613 *  1.4669723 *  2.9706286 *
   7 H       2.2229107 *  0.0000000    1.8034244 *  3.3318963    3.8166514  
   8 H       2.1766613 *  1.8034244 *  0.0000000    2.8748897 *  2.6042514 *
   9 C       1.4669723 *  3.3318963    2.8748897 *  0.0000000    2.1709788 *
  10 H       2.9706286 *  3.8166514    2.6042514 *  2.1709788 *  0.0000000  
  11 H       3.3380345    4.2299410    3.7441984    2.2139182 *  1.8180350 *
  12 BR      1.9738220 *  3.8009782    2.7747504 *  1.9863989 *  2.8538398 *
  13 H       1.1106836 *  2.5737039 *  3.1401509    2.0334647 *  3.8922014  
  14 H       2.3316813 *  4.3530690    3.9619352    1.1100491 *  2.9000479 *

               11 H         12 BR        13 H         14 H     

   1 C       2.1630437 *  3.6385408    2.9624447 *  3.3456430  
   2 C       1.1105666 *  2.9531739 *  3.1366809    2.3067391 *
   3 C       3.3239019    2.9111486 *  2.2782849 *  3.4656803  
   4 H       2.4032072 *  4.2761110    2.8317444 *  3.4615739  
   5 H       2.6593577 *  4.4739378    4.0274844    4.3493138  
   6 C       3.3380345    1.9738220 *  1.1106836 *  2.3316813 *
   7 H       4.2299410    3.8009782    2.5737039 *  4.3530690  
   8 H       3.7441984    2.7747504 *  3.1401509    3.9619352  
   9 C       2.2139182 *  1.9863989 *  2.0334647 *  1.1100491 *
  10 H       1.8180350 *  2.8538398 *  3.8922014    2.9000479 *
  11 H       0.0000000    3.8709459    3.8253463    2.5774936 *
  12 BR      3.8709459    0.0000000    2.8174631 *  2.4306005 *
  13 H       3.8253463    2.8174631 *  0.0000000    2.5357437 *
  14 H       2.5774936 *  2.4306005 *  2.5357437 *  0.0000000  

  * ... LESS THAN  3.000


     ATOMIC BASIS SET
     ----------------
 THE CONTRACTED PRIMITIVE FUNCTIONS HAVE BEEN UNNORMALIZED
 THE CONTRACTED BASIS FUNCTIONS ARE NOW NORMALIZED TO UNITY

  SHELL TYPE  PRIMITIVE        EXPONENT          CONTRACTION COEFFICIENT(S)

 C         

      1   S       1            71.6168373    0.154328967295
      1   S       2            13.0450963    0.535328142282
      1   S       3             3.5305122    0.444634542185

      2   L       4             2.9412494   -0.099967229187    0.155916274999
      2   L       5             0.6834831    0.399512826089    0.607683718598
      2   L       6             0.2222899    0.700115468880    0.391957393099

 C         

      3   S       7            71.6168373    0.154328967295
      3   S       8            13.0450963    0.535328142282
      3   S       9             3.5305122    0.444634542185

      4   L      10             2.9412494   -0.099967229187    0.155916274999
      4   L      11             0.6834831    0.399512826089    0.607683718598
      4   L      12             0.2222899    0.700115468880    0.391957393099

 C         

      5   S      13            71.6168373    0.154328967295
      5   S      14            13.0450963    0.535328142282
      5   S      15             3.5305122    0.444634542185

      6   L      16             2.9412494   -0.099967229187    0.155916274999
      6   L      17             0.6834831    0.399512826089    0.607683718598
      6   L      18             0.2222899    0.700115468880    0.391957393099

 H         

      7   S      19             3.4252509    0.154328967295
      7   S      20             0.6239137    0.535328142282
      7   S      21             0.1688554    0.444634542185

 H         

      8   S      22             3.4252509    0.154328967295
      8   S      23             0.6239137    0.535328142282
      8   S      24             0.1688554    0.444634542185

 C         

      9   S      25            71.6168373    0.154328967295
      9   S      26            13.0450963    0.535328142282
      9   S      27             3.5305122    0.444634542185

     10   L      28             2.9412494   -0.099967229187    0.155916274999
     10   L      29             0.6834831    0.399512826089    0.607683718598
     10   L      30             0.2222899    0.700115468880    0.391957393099

 H         

     11   S      31             3.4252509    0.154328967295
     11   S      32             0.6239137    0.535328142282
     11   S      33             0.1688554    0.444634542185

 H         

     12   S      34             3.4252509    0.154328967295
     12   S      35             0.6239137    0.535328142282
     12   S      36             0.1688554    0.444634542185

 C         

     13   S      37            71.6168373    0.154328967295
     13   S      38            13.0450963    0.535328142282
     13   S      39             3.5305122    0.444634542185

     14   L      40             2.9412494   -0.099967229187    0.155916274999
     14   L      41             0.6834831    0.399512826089    0.607683718598
     14   L      42             0.2222899    0.700115468880    0.391957393099

 H         

     15   S      43             3.4252509    0.154328967295
     15   S      44             0.6239137    0.535328142282
     15   S      45             0.1688554    0.444634542185

 H         

     16   S      46             3.4252509    0.154328967295
     16   S      47             0.6239137    0.535328142282
     16   S      48             0.1688554    0.444634542185

 BR        

     17   S      49          2629.9974710    0.154328967295
     17   S      50           479.0573224    0.535328142282
     17   S      51           129.6516070    0.444634542185

     18   L      52           219.8350255   -0.099967229187    0.155916274999
     18   L      53            51.0849322    0.399512826089    0.607683718598
     18   L      54            16.6144055    0.700115468880    0.391957393099

     19   L      55            20.6524416   -0.219620369005    0.010587604289
     19   L      56             5.7619788    0.225595433605    0.595167005266
     19   L      57             2.2551994    0.900398426019    0.462001011973

     20   D      58            22.3657496    0.168659606013
     20   D      59             7.0128139    0.584798481745
     20   D      60             2.7316638    0.405677952331

     21   L      61             1.3960375   -0.308844121382   -0.121546859998
     21   L      62             0.5152256    0.019606411652    0.571522760389
     21   L      63             0.2275291    1.131034441567    0.549894947089

 H         

     22   S      64             3.4252509    0.154328967295
     22   S      65             0.6239137    0.535328142282
     22   S      66             0.1688554    0.444634542185

 H         

     23   S      67             3.4252509    0.154328967295
     23   S      68             0.6239137    0.535328142282
     23   S      69             0.1688554    0.444634542185

 TOTAL NUMBER OF BASIS SET SHELLS             =   23
 NUMBER OF CARTESIAN GAUSSIAN BASIS FUNCTIONS =   52
 NUMBER OF ELECTRONS                          =   74
 CHARGE OF MOLECULE                           =   -1
 SPIN MULTIPLICITY                            =    1
 NUMBER OF OCCUPIED ORBITALS (ALPHA)          =   37
 NUMBER OF OCCUPIED ORBITALS (BETA )          =   37
 TOTAL NUMBER OF ATOMS                        =   14
 THE NUCLEAR REPULSION ENERGY IS      434.8767859426

     $CONTRL OPTIONS
     ---------------
 SCFTYP=RHF          RUNTYP=OPTIMIZE     EXETYP=RUN     
 MPLEVL=       0     CITYP =NONE         CCTYP =NONE         VBTYP =NONE    
 DFTTYP=NONE         TDDFT =NONE    
 MULT  =       1     ICHARG=      -1     NZVAR =       1     COORD =UNIQUE  
 PP    =NONE         RELWFN=NONE         LOCAL =NONE         NUMGRD=       F
 ISPHER=      -1     NOSYM =       0     MAXIT =      30     UNITS =ANGS    
 PLTORB=       F     MOLPLT=       F     AIMPAC=       F     FRIEND=        
 NPRINT=       7     IREST =       0     GEOM  =INPUT   
 NORMF =       0     NORMP =       0     ITOL  =      20     ICUT  =       9
 INTTYP=BEST         GRDTYP=BEST         QMTTOL= 1.0E-06

     $SYSTEM OPTIONS
     ---------------
  REPLICATED MEMORY=     1000000 WORDS (ON EVERY NODE).
 DISTRIBUTED MEMDDI=           0 MILLION WORDS IN AGGREGATE,
 MEMDDI DISTRIBUTED OVER   1 PROCESSORS IS           0 WORDS/PROCESSOR.
 TOTAL MEMORY REQUESTED ON EACH PROCESSOR=     1000000 WORDS.
 TIMLIM=      525600.00 MINUTES, OR     365.0 DAYS.
 PARALL= F  BALTYP=  DLB     KDIAG=    0  COREFL= F
 MXSEQ2=     300 MXSEQ3=     150  mem10=         0

          ----------------
          PROPERTIES INPUT
          ----------------

     MOMENTS            FIELD           POTENTIAL          DENSITY
 IEMOM =       1   IEFLD =       0   IEPOT =       0   IEDEN =       0
 WHERE =COMASS     WHERE =NUCLEI     WHERE =NUCLEI     WHERE =NUCLEI  
 OUTPUT=BOTH       OUTPUT=BOTH       OUTPUT=BOTH       OUTPUT=BOTH    
 IEMINT=       0   IEFINT=       0                     IEDINT=       0
                                                       MORB  =       0
          EXTRAPOLATION IN EFFECT
          SOSCF IN EFFECT
 ORBITAL PRINTING OPTION: NPREO=     1    52     2     1

     -------------------------------
     INTEGRAL TRANSFORMATION OPTIONS
     -------------------------------
     NWORD  =            0
     CUTOFF = 1.0E-09     MPTRAN =       0
     DIRTRF =       F     AOINTS =DUP     

          ----------------------
          INTEGRAL INPUT OPTIONS
          ----------------------
 NOPK  =       1 NORDER=       0 SCHWRZ=       T


 -----------------------------------------------
  STATISTICS ON AUTOMATIC COORDINATE GENERATION 
 -----------------------------------------------
  NUMBER OF USER SPECIFIED BONDS                             2
  NUMBER OF BONDS                                           17
  NUMBER OF ANGLES                                          40
  NUMBER OF TORSIONS                                        48
  NUMBER OF EXTRA COORD.                                     0
  NUMBER OF EXTRA COORD. FOR CONSTRAINTS                     0
  NUMBER OF CONSTRAINED COORD.                               2

  TOTAL NUMBER OF PRIMITIVES                               105
 -----------------------------------------------

   --- ENCODED Z MATRIX ---
 COORD  TYPE   I   J   K   L   M   N
    1      1    6  12
    2      1    9  12
    3      1    1   4
    4      1    1   2
    5      1    1   5
    6      1    1   3
    7      1    2  11
    8      1    2   9
    9      1    2  10
   10      1    3   7
   11      1    3   6
   12      1    3   8
   13      1    6  13
   14      1    6  12
   15      1    6   9
   16      1    9  14
   17      1    9  12
   18      2    1   2   9
   19      2    1   2  10
   20      2    1   3   7
   21      2    1   3   6
   22      2    1   3   8
   23      2    1   2  11
   24      2    2   9  12
   25      2    2   9   6
   26      2    2   1   5
   27      2    2   9  12
   28      2    2   1   4
   29      2    2   9  14
   30      2    2   1   3
   31      2    3   1   5
   32      2    3   1   4
   33      2    3   6   9
   34      2    3   6  12
   35      2    3   6  13
   36      2    3   6  12
   37      2    4   1   5
   38      2    6  12   9
   39      2    6   3   8
   40      2    6   3   7
   41      2    6  12   9
   42      2    6  12   9
   43      2    6   9  12
   44      2    6   9  12
   45      2    6   9  14
   46      2    6  12   9
   47      2    7   3   8
   48      2    9   6  12
   49      2    9   2  10
   50      2    9   6  13
   51      2    9   2  11
   52      2    9   6  12
   53      2   10   2  11
   54      2   12   6  13
   55      2   12   6  13
   56      2   12   9  14
   57      2   12   9  14
   58      3    1   2   9  12
   59      3    1   2   9  14
   60      3    1   3   6   9
   61      3    1   3   6  12
   62      3    1   3   6  13
   63      3    1   2   9   6
   64      3    2   9  12   6
   65      3    2   1   3   6
   66      3    2   1   3   7
   67      3    2   1   3   8
   68      3    2   9   6  12
   69      3    2   9   6  13
   70      3    2   9   6   3
   71      3    3   1   2   9
   72      3    3   1   2  11
   73      3    3   1   2  10
   74      3    3   6  12   9
   75      3    3   6   9  12
   76      3    3   6   9  14
   77      3    4   1   3   6
   78      3    4   1   2   9
   79      3    4   1   2  11
   80      3    4   1   3   7
   81      3    4   1   3   8
   82      3    4   1   2  10
   83      3    5   1   3   7
   84      3    5   1   2  11
   85      3    5   1   3   8
   86      3    5   1   2   9
   87      3    5   1   2  10
   88      3    5   1   3   6
   89      3    6  12   9  14
   90      3    6   9   2  10
   91      3    6   9   2  11
   92      3    7   3   6  13
   93      3    7   3   6  12
   94      3    7   3   6   9
   95      3    8   3   6  13
   96      3    8   3   6  12
   97      3    8   3   6   9
   98      3    9  12   6  13
   99      3   10   2   9  12
  100      3   10   2   9  14
  101      3   11   2   9  12
  102      3   11   2   9  14
  103      3   12   6   9  14
  104      3   12   9   6  13
  105      3   13   6   9  14

          INDEP./SYM. INTERNAL COORDINATES
          --------------------------------
 CRD  1=   1.0000 (  1)
 CRD  2=   1.0000 (  2)
 CRD  3=   0.4963 (  4)  0.2114 (  5)  0.4741 (  6)  0.1321 (  7)  0.1537 ( 10)
           0.1383 ( 22)  0.1060 ( 23) -0.1048 ( 30)  0.1028 ( 33) -0.1048 ( 37)
          -0.1491 ( 39) -0.1341 ( 49)  0.1015 ( 64)  0.1417 ( 65) -0.1299 ( 71)
          -0.1177 ( 72) -0.1283 ( 74)  0.1345 ( 77)  0.1001 ( 90) -0.1077 ( 95)
           0.1178 (100)
 CRD  4=  -0.4660 (  4)  0.4220 (  6) -0.1665 ( 11) -0.1338 ( 16) -0.1114 ( 19)
           0.1371 ( 22) -0.2721 ( 26)  0.2653 ( 31) -0.1492 ( 39) -0.1658 ( 67)
          -0.1171 ( 70) -0.1419 ( 73) -0.1660 ( 81) -0.1352 ( 82)  0.1496 ( 83)
           0.1262 ( 84)  0.1131 ( 86)  0.1438 ( 88) -0.1034 ( 96)
 CRD  5=  -0.1336 (  4)  0.2456 (  6) -0.1038 (  7) -0.1894 (  8)  0.1827 ( 19)
           0.2428 ( 20) -0.1654 ( 22) -0.1814 ( 23)  0.1264 ( 26) -0.2683 ( 28)
           0.3067 ( 32)  0.1697 ( 39) -0.1623 ( 40) -0.1846 ( 49) -0.1661 ( 58)
          -0.1212 ( 59) -0.1299 ( 60) -0.1261 ( 61) -0.1428 ( 62) -0.1856 ( 63)
           0.1377 ( 66)  0.1461 ( 67)  0.1457 ( 70)  0.1124 ( 72)  0.1798 ( 73)
          -0.1621 ( 77) -0.1327 ( 78) -0.1059 ( 79)  0.1097 ( 87)
 CRD  6=  -0.2078 (  6) -0.4529 (  8) -0.1417 ( 10) -0.5686 ( 11) -0.1078 ( 12)
          -0.1230 ( 13) -0.1386 ( 15) -0.2323 ( 16) -0.1431 ( 39) -0.1340 ( 49)
           0.1223 ( 82) -0.1061 ( 84) -0.1002 ( 86)
 CRD  7=   0.1782 (  3)  0.2001 (  4)  0.1195 (  6)  0.1426 (  9) -0.1273 ( 10)
          -0.1255 ( 11)  0.1409 ( 15)  0.1011 ( 24)  0.1011 ( 27)  0.1534 ( 28)
          -0.1624 ( 29) -0.1901 ( 30)  0.1256 ( 31) -0.1288 ( 35) -0.1108 ( 37)
          -0.1793 ( 40)  0.1813 ( 45)  0.1403 ( 49)  0.1691 ( 50) -0.2065 ( 51)
          -0.1032 ( 58)  0.1626 ( 60)  0.1359 ( 61) -0.1100 ( 63) -0.1751 ( 65)
          -0.1127 ( 68) -0.1052 ( 69)  0.1331 ( 71)  0.1650 ( 78)  0.1730 ( 86)
          -0.1512 ( 88) -0.1944 ( 89) -0.1275 ( 91)  0.1138 ( 93)  0.1405 ( 94)
           0.1963 ( 98) -0.1207 (101)
 CRD  8=   0.1062 (  5) -0.1777 (  7) -0.1075 ( 10)  0.1347 ( 12) -0.2607 ( 13)
          -0.3029 ( 15)  0.1036 ( 18)  0.1731 ( 22) -0.1549 ( 25)  0.1077 ( 26)
           0.2945 ( 29)  0.1966 ( 33) -0.1538 ( 45) -0.1694 ( 50) -0.1035 ( 56)
          -0.1035 ( 57) -0.1266 ( 59)  0.1705 ( 61)  0.1623 ( 62) -0.1620 ( 64)
           0.1367 ( 66) -0.1124 ( 69) -0.2086 ( 74)  0.1161 ( 86)  0.1315 ( 89)
          -0.1187 ( 97) -0.1928 ( 98) -0.1164 (100)
 CRD  9=  -0.1606 (  3)  0.2148 (  5) -0.1497 ( 10)  0.1913 ( 11)  0.1736 ( 13)
          -0.2429 ( 15) -0.4599 ( 16)  0.1282 ( 19)  0.1763 ( 25) -0.1051 ( 29)
           0.1014 ( 31) -0.1414 ( 33)  0.1174 ( 35)  0.1140 ( 39) -0.1086 ( 54)
          -0.1086 ( 55) -0.1155 ( 58)  0.1017 ( 62)  0.1850 ( 64)  0.1089 ( 66)
           0.1431 ( 67) -0.1721 ( 72) -0.1191 ( 73)  0.1497 ( 74) -0.1076 ( 88)
           0.1403 ( 90)  0.1089 ( 95)  0.1243 (105)
 CRD 10=  -0.4795 (  3)  0.2316 (  5) -0.1708 (  9) -0.1710 ( 12)  0.2085 ( 16)
          -0.2057 ( 19)  0.1887 ( 20) -0.1662 ( 22)  0.1642 ( 23) -0.1112 ( 28)
          -0.1130 ( 32) -0.1948 ( 40)  0.1125 ( 49) -0.1894 ( 51)  0.1110 ( 58)
           0.1023 ( 59) -0.1237 ( 62)  0.2061 ( 66)  0.1557 ( 67) -0.1981 ( 72)
          -0.1605 ( 73)
 CRD 11=  -0.2724 (  7)  0.3603 (  9)  0.2659 ( 10) -0.4281 ( 12) -0.1995 ( 13)
           0.1080 ( 19) -0.1949 ( 26)  0.1475 ( 28)  0.2041 ( 31) -0.1582 ( 32)
          -0.1150 ( 60) -0.1015 ( 63)  0.1434 ( 70)  0.1108 ( 76)  0.1622 ( 77)
           0.1458 ( 78)  0.1669 ( 86)  0.1801 ( 88)
 CRD 12=  -0.1241 (  3)  0.1570 (  5)  0.1294 (  7) -0.2382 (  9) -0.1735 ( 12)
          -0.4119 ( 13) -0.1461 ( 20)  0.1868 ( 24)  0.1868 ( 27) -0.2042 ( 29)
           0.1671 ( 34) -0.1391 ( 35)  0.1671 ( 36) -0.1010 ( 39)  0.1922 ( 45)
          -0.2058 ( 68) -0.1651 ( 69) -0.1094 ( 71)  0.1866 ( 75)  0.1108 ( 76)
          -0.2020 ( 89)  0.1095 ( 90)  0.1240 ( 91) -0.1037 ( 92) -0.1284 ( 93)
          -0.1361 ( 94) -0.1119 ( 96) -0.1196 ( 97)
 CRD 13=   0.2091 (  5) -0.2921 (  7)  0.1599 (  9) -0.2797 ( 10)  0.1546 ( 12)
           0.3289 ( 13)  0.1002 ( 15)  0.3877 ( 16)  0.1583 ( 19)  0.1054 ( 22)
          -0.1475 ( 23)  0.1034 ( 56)  0.1034 ( 57)  0.1741 ( 90)  0.1604 ( 91)
          -0.1056 ( 93) -0.1274 ( 95) -0.1386 ( 96) -0.1085 ( 97)  0.2068 ( 99)
           0.1576 (100)  0.1932 (101)  0.1440 (102)
 CRD 14=   0.4434 (  9) -0.1680 ( 12) -0.1105 ( 19) -0.1223 ( 20)  0.1162 ( 22)
           0.1256 ( 26) -0.1565 ( 28) -0.1148 ( 31)  0.1284 ( 32) -0.1089 ( 39)
           0.1296 ( 40)  0.1104 ( 49) -0.1738 ( 51) -0.1371 ( 72) -0.1204 ( 77)
          -0.2224 ( 79) -0.2174 ( 80) -0.1890 ( 81) -0.1401 ( 82) -0.1818 ( 83)
          -0.2068 ( 84) -0.1534 ( 85) -0.1244 ( 87) -0.1355 ( 90) -0.1183 ( 92)
          -0.1372 ( 93) -0.1180 ( 94) -0.1405 ( 95) -0.1593 ( 96) -0.1402 ( 97)
          -0.1220 ( 99) -0.1142 (100)
 CRD 15=   0.4488 (  3)  0.4233 (  5) -0.3846 (  7) -0.3894 (  9) -0.2418 ( 12)
           0.1081 ( 23)  0.1652 ( 37)  0.1008 ( 49) -0.1509 ( 53) -0.1414 ( 80)
          -0.1755 ( 87) -0.1062 ( 91) -0.1088 (101)
 CRD 16=  -0.1975 (  3) -0.1226 (  5) -0.4128 (  7) -0.1625 (  9)  0.5196 ( 10)
           0.4063 ( 12) -0.1133 ( 20) -0.1258 ( 39)  0.1902 ( 47) -0.1164 ( 53)
          -0.1285 ( 67) -0.1058 ( 73) -0.1384 ( 81) -0.1342 ( 82) -0.1979 ( 85)
          -0.1202 ( 92) -0.1309 ( 93) -0.1166 ( 94)
 CRD 17=   0.3173 (  3)  0.4622 (  5) -0.1028 (  6)  0.3249 (  7)  0.2340 (  9)
           0.3590 ( 10)  0.3276 ( 12)  0.1721 ( 37)  0.1454 ( 47)  0.1231 ( 53)
          -0.1204 ( 81)  0.1665 ( 82)  0.1416 ( 83)
 CRD 18=   0.1121 (  3) -0.2267 ( 10)  0.2486 ( 12) -0.5445 ( 13)  0.2940 ( 16)
          -0.1516 ( 29)  0.2290 ( 35) -0.1415 ( 54) -0.1415 ( 55)  0.1216 ( 56)
           0.1216 ( 57)  0.1975 ( 69)  0.1094 ( 81)  0.1094 ( 83)  0.1202 ( 85)
           0.1265 (103)  0.1264 (104)  0.2529 (105)
 CRD 19=   0.1442 (  3) -0.1150 (  5) -0.1670 (  7)  0.1973 (  9)  0.1658 ( 10)
          -0.1999 ( 12)  0.1225 ( 16)  0.1098 ( 20) -0.1278 ( 29) -0.1039 ( 31)
           0.1086 ( 45)  0.1042 ( 61)  0.1148 ( 62)  0.1296 ( 63) -0.1414 ( 70)
          -0.1049 ( 72) -0.1021 ( 73) -0.1394 ( 78) -0.1745 ( 79) -0.1717 ( 82)
          -0.1856 ( 84) -0.1504 ( 86) -0.1828 ( 87) -0.1001 ( 89)  0.1641 ( 90)
           0.2027 ( 91)  0.2105 ( 92)  0.1999 ( 93)  0.1888 ( 94)  0.1858 ( 95)
           0.1752 ( 96)  0.1641 ( 97)  0.1333 ( 99)  0.1004 (100)  0.1720 (101)
           0.1391 (102)
 CRD 20=   0.3087 (  3) -0.2449 (  5) -0.1136 ( 10)  0.1441 ( 12)  0.1475 ( 13)
          -0.1300 ( 16) -0.1444 ( 35)  0.1183 ( 65)  0.1869 ( 66)  0.1574 ( 67)
          -0.1650 ( 72) -0.1368 ( 73)  0.1522 ( 77) -0.1148 ( 78) -0.1930 ( 79)
           0.2208 ( 80)  0.1914 ( 81) -0.1648 ( 82)  0.2354 ( 83) -0.1969 ( 84)
           0.2059 ( 85) -0.1188 ( 86) -0.1687 ( 87)  0.1668 ( 88) -0.1184 ( 92)
          -0.1140 ( 93) -0.1207 ( 94) -0.1017 ( 97) -0.1175 (105)
 CRD 21=   0.2084 (  3) -0.1596 (  5)  0.2512 (  7) -0.2469 (  9)  0.1440 ( 10)
          -0.2158 ( 12)  0.3175 ( 13) -0.2006 ( 15)  0.3755 ( 16) -0.1233 ( 29)
           0.1249 ( 56)  0.1249 ( 57) -0.1061 ( 58) -0.1973 ( 59)  0.1264 ( 62)
           0.2331 ( 76) -0.1219 ( 94)  0.1187 ( 95) -0.1338 (100) -0.1810 (102)
           0.1799 (103)  0.1072 (105)
 CRD 22=  -0.1030 (  3)  0.2245 (  5) -0.2666 ( 16) -0.1241 ( 19) -0.1708 ( 29)
          -0.1337 ( 35) -0.1128 ( 37)  0.1024 ( 39)  0.1138 ( 40)  0.1719 ( 45)
           0.1198 ( 49)  0.1520 ( 51)  0.2016 ( 54)  0.2016 ( 55)  0.2159 ( 56)
           0.2159 ( 57) -0.1304 ( 69)  0.1303 ( 72)  0.1306 ( 76)  0.1257 ( 77)
           0.2072 ( 81) -0.1768 ( 82)  0.1046 ( 84) -0.1100 ( 87) -0.1020 ( 89)
          -0.1007 ( 98) -0.1619 (100)  0.2206 (103) -0.2230 (104)
 CRD 23=  -0.1517 (  7)  0.2205 ( 10) -0.1434 ( 16) -0.1247 ( 19)  0.1060 ( 20)
           0.1674 ( 22) -0.1160 ( 23)  0.1870 ( 26)  0.1146 ( 28) -0.1503 ( 31)
          -0.1569 ( 32) -0.1231 ( 40) -0.1156 ( 47)  0.1898 ( 53)  0.1055 ( 56)
           0.1055 ( 57) -0.1170 ( 59)  0.1120 ( 76)  0.1425 ( 78)  0.1329 ( 79)
           0.1538 ( 80)  0.1156 ( 81)  0.2079 ( 82) -0.1478 ( 88) -0.1020 ( 90)
           0.1254 ( 91) -0.2651 ( 95) -0.1582 ( 96) -0.1482 ( 97) -0.2463 (100)
           0.1446 (101)  0.1327 (103)  0.1109 (104)  0.2436 (105)
 CRD 24=   0.1866 (  5)  0.1530 (  6) -0.3111 (  8) -0.1005 (  9) -0.2941 ( 11)
           0.2477 ( 15)  0.1199 ( 16) -0.1502 ( 20) -0.1399 ( 22)  0.1070 ( 28)
           0.1341 ( 29) -0.1795 ( 37)  0.1710 ( 39)  0.1265 ( 40) -0.2063 ( 45)
           0.1034 ( 53) -0.1395 ( 79)  0.2165 ( 81) -0.1090 ( 82) -0.1333 ( 83)
           0.1920 ( 89)  0.1334 ( 91) -0.1003 ( 92) -0.1460 ( 93)  0.1351 ( 95)
           0.1383 ( 97) -0.1289 (100)  0.1335 (101)
 CRD 25=  -0.3537 (  4)  0.3009 (  6) -0.1134 (  7)  0.2005 (  8)  0.1259 ( 10)
          -0.1109 ( 11)  0.1386 ( 16)  0.1007 ( 23)  0.1204 ( 26)  0.1526 ( 28)
          -0.1381 ( 31) -0.1574 ( 32)  0.1411 ( 39) -0.1071 ( 47) -0.1497 ( 49)
           0.1096 ( 67) -0.1045 ( 69)  0.1023 ( 73) -0.1296 ( 76)  0.2193 ( 81)
           0.2229 ( 82) -0.1674 ( 83) -0.1744 ( 84) -0.1494 ( 86) -0.1065 ( 88)
          -0.1127 ( 91)  0.1016 (100) -0.1587 (101) -0.1082 (103) -0.1021 (104)
          -0.2103 (105)
 CRD 26=  -0.2549 (  3) -0.1988 (  7) -0.1363 ( 10)  0.1705 ( 12)  0.1036 ( 23)
           0.1321 ( 24) -0.1655 ( 26)  0.1321 ( 27)  0.1630 ( 37)  0.1339 ( 40)
          -0.2110 ( 49) -0.1753 ( 59) -0.1278 ( 66) -0.1442 ( 68) -0.1210 ( 69)
           0.1710 ( 73)  0.1980 ( 76) -0.1082 ( 80)  0.1321 ( 82) -0.1709 ( 84)
           0.1329 ( 85) -0.1908 ( 86)  0.2392 ( 88)  0.1036 ( 89) -0.2135 (100)
          -0.2867 (102)  0.1107 (103)  0.1339 (105)
 CRD 27=  -0.1546 (  3)  0.1768 (  5) -0.1833 (  8)  0.1698 (  9) -0.1082 ( 11)
           0.2239 ( 13) -0.1128 ( 15)  0.1933 ( 16)  0.1079 ( 20) -0.1109 ( 29)
          -0.1623 ( 31)  0.1360 ( 34)  0.1360 ( 36) -0.1220 ( 39) -0.1283 ( 50)
           0.2081 ( 51) -0.1281 ( 53) -0.1554 ( 54) -0.1554 ( 55) -0.1085 ( 58)
           0.2101 ( 72)  0.1433 ( 75)  0.1628 ( 77)  0.1288 ( 79)  0.1904 ( 80)
          -0.1124 ( 82) -0.1455 ( 86) -0.1916 ( 87) -0.1242 ( 89) -0.1181 ( 90)
           0.1308 ( 92) -0.1162 ( 97) -0.1658 ( 99) -0.1225 (101) -0.1451 (103)
           0.1271 (104)
 CRD 28=   0.1291 (  4) -0.1592 (  5)  0.2564 (  6) -0.1375 (  7) -0.2276 ( 10)
           0.1046 ( 11)  0.2461 ( 15) -0.1038 ( 16) -0.1104 ( 19) -0.1022 ( 22)
          -0.1089 ( 32) -0.1014 ( 39)  0.2492 ( 47) -0.1735 ( 50)  0.1220 ( 53)
          -0.1126 ( 61)  0.1373 ( 62)  0.1334 ( 66) -0.1148 ( 67)  0.1020 ( 78)
           0.1246 ( 79) -0.1877 ( 81)  0.1615 ( 82) -0.1908 ( 85) -0.1526 ( 90)
           0.1013 ( 92) -0.1487 ( 93) -0.1132 ( 94)  0.3060 ( 95) -0.2726 ( 98)
          -0.1160 ( 99) -0.1053 (100)
 CRD 29=  -0.1322 (  7)  0.1492 (  8)  0.1778 (  9)  0.1322 ( 10) -0.2217 ( 11)
          -0.2007 ( 12)  0.1680 ( 13) -0.1645 ( 16) -0.1825 ( 20)  0.1618 ( 23)
          -0.1519 ( 25) -0.1088 ( 28)  0.1355 ( 33)  0.1388 ( 35)  0.1237 ( 39)
           0.1880 ( 45) -0.1088 ( 49) -0.1348 ( 50) -0.1500 ( 54) -0.1500 ( 55)
           0.1172 ( 58)  0.1022 ( 61) -0.1748 ( 64)  0.1245 ( 67)  0.1082 ( 73)
          -0.1483 ( 74) -0.1089 ( 77)  0.1263 ( 83)  0.1320 ( 84)  0.1518 ( 85)
           0.1669 ( 87) -0.1893 ( 89) -0.1552 ( 91) -0.1758 ( 92) -0.1344 ( 93)
          -0.1742 ( 94) -0.1292 ( 98) -0.1213 (102)  0.1192 (104)
 CRD 30=  -0.3168 (  4)  0.2294 (  5) -0.1921 (  6)  0.1106 (  8)  0.1304 ( 11)
           0.1848 ( 15) -0.1083 ( 16)  0.1022 ( 19)  0.1479 ( 20)  0.1399 ( 23)
           0.1026 ( 28)  0.1762 ( 30) -0.2365 ( 37) -0.1028 ( 40) -0.1068 ( 51)
          -0.1041 ( 64) -0.1532 ( 67)  0.1126 ( 73)  0.1792 ( 77) -0.1337 ( 78)
          -0.1916 ( 79)  0.2599 ( 80) -0.2361 ( 85)  0.1538 ( 87) -0.1203 ( 88)
           0.1057 ( 90)  0.1399 ( 92) -0.1116 ( 98)  0.1664 ( 99) -0.1567 (102)
 CRD 31=   0.1012 (  4) -0.1020 (  6)  0.3199 (  8) -0.2045 (  9) -0.2368 ( 11)
           0.1694 ( 12)  0.1192 ( 13) -0.1624 ( 18)  0.1039 ( 34)  0.1039 ( 36)
           0.1522 ( 45) -0.1030 ( 47) -0.1029 ( 50)  0.1994 ( 53) -0.1174 ( 60)
          -0.1723 ( 66)  0.1544 ( 69)  0.1659 ( 70) -0.1963 ( 72) -0.2267 ( 79)
          -0.1064 ( 80) -0.1405 ( 83) -0.1245 ( 84)  0.1380 ( 87) -0.1586 ( 89)
          -0.1286 ( 90)  0.1114 ( 92)  0.1023 ( 93) -0.1001 ( 99)  0.1063 (101)
           0.2316 (102)
 CRD 32=   0.1798 (  4) -0.2312 (  6) -0.2545 (  7)  0.1026 ( 10)  0.1406 ( 11)
           0.1416 ( 16) -0.1573 ( 18) -0.1454 ( 19)  0.1800 ( 25) -0.1011 ( 28)
          -0.1132 ( 29)  0.1144 ( 32) -0.1228 ( 33) -0.1001 ( 40)  0.1127 ( 51)
           0.1618 ( 53)  0.1384 ( 59)  0.1195 ( 63)  0.1857 ( 64)  0.1768 ( 73)
           0.1137 ( 74) -0.2007 ( 78) -0.1185 ( 79)  0.1213 ( 84)  0.2860 ( 87)
          -0.1657 ( 90) -0.1148 ( 96) -0.2577 ( 99) -0.1467 (100) -0.1159 (105)
 CRD 33=   0.1166 (  5)  0.1433 (  6) -0.1392 ( 10)  0.1781 ( 11) -0.1340 ( 12)
          -0.2560 ( 15) -0.2265 ( 21)  0.1049 ( 28) -0.1238 ( 31)  0.1162 ( 33)
           0.2113 ( 47)  0.1217 ( 50)  0.1187 ( 61) -0.1826 ( 62) -0.1908 ( 67)
           0.1071 ( 71)  0.1393 ( 73) -0.1540 ( 74) -0.1261 ( 79)  0.2253 ( 80)
           0.1277 ( 83) -0.1185 ( 84) -0.1178 ( 85) -0.3497 ( 92) -0.1230 ( 94)
           0.2427 ( 96)  0.1681 ( 97)  0.1948 ( 98)  0.1038 (102)
 CRD 34=   0.2352 (  3)  0.1377 (  9) -0.1506 ( 10)  0.1215 ( 12) -0.1370 ( 15)
          -0.1283 ( 19) -0.1819 ( 22)  0.1497 ( 26) -0.1012 ( 28) -0.1409 ( 32)
          -0.1179 ( 37)  0.1233 ( 40)  0.1016 ( 51)  0.1004 ( 58) -0.1397 ( 60)
          -0.2513 ( 62)  0.1409 ( 63)  0.2228 ( 65) -0.2087 ( 71) -0.1203 ( 73)
           0.1016 ( 77)  0.1188 ( 79) -0.2757 ( 83)  0.2453 ( 84) -0.2323 ( 85)
           0.1565 ( 87)  0.1604 ( 96)  0.1005 ( 97)  0.1198 ( 98)
 CRD 35=   0.1052 (  4)  0.1433 (  7)  0.5293 (  8)  0.1040 (  9) -0.3770 ( 11)
          -0.2312 ( 18)  0.1033 ( 19)  0.1619 ( 21)  0.1324 ( 29) -0.2571 ( 40)
          -0.1863 ( 45)  0.2461 ( 51) -0.1329 ( 53) -0.1051 ( 65) -0.1140 ( 77)
          -0.1043 ( 78) -0.1161 ( 86) -0.1247 ( 88)  0.1895 ( 89)
 CRD 36=   0.1244 (  5)  0.1504 (  8) -0.1060 ( 10)  0.3193 ( 18) -0.1683 ( 20)
           0.3619 ( 21) -0.1131 ( 22) -0.1638 ( 23) -0.1194 ( 25)  0.1240 ( 26)
           0.1300 ( 28)  0.1219 ( 29) -0.3699 ( 30)  0.1251 ( 31)  0.1318 ( 32)
          -0.1506 ( 33)  0.1069 ( 35) -0.1349 ( 37) -0.1959 ( 39)  0.1321 ( 47)
          -0.2009 ( 49)  0.1143 ( 53) -0.1030 ( 64)  0.1379 ( 74)  0.1034 ( 77)
          -0.1185 ( 78) -0.1244 ( 86)  0.1106 ( 88)  0.1082 ( 98)

 THE DETERMINANT OF THE G MATRIX IS 10**(    -9)


                     --------------------
                     INTERNAL COORDINATES
                     --------------------

                 - - ATOMS - -         COORDINATE      COORDINATE
 NO.   TYPE    I  J  K  L  M  N        (BOHR,RAD)       (ANG,DEG)
 ----------------------------------------------------------------
   1 STRETCH   6 12                     3.7299828       1.9738220
   2 STRETCH   9 12                     3.7537497       1.9863989
   3 STRETCH   1  4                     2.1069980       1.1149754
   4 STRETCH   1  2                     2.8611482       1.5140546
   5 STRETCH   1  5                     2.0986658       1.1105662
   6 STRETCH   1  3                     2.8492987       1.5077840
   7 STRETCH   2 11                     2.0986665       1.1105666
   8 STRETCH   2  9                     2.8845090       1.5264166
   9 STRETCH   2 10                     2.1023299       1.1125051
  10 STRETCH   3  7                     2.0982376       1.1103396
  11 STRETCH   3  6                     2.8979729       1.5335413
  12 STRETCH   3  8                     2.1043164       1.1135563
  13 STRETCH   6 13                     2.0988877       1.1106836
  14 STRETCH   6 12                     3.7299828       1.9738220
  15 STRETCH   6  9                     2.7721757       1.4669723
  16 STRETCH   9 14                     2.0976886       1.1100491
  17 STRETCH   9 12                     3.7537497       1.9863989
  18 BEND      1  2  9                  1.7807852     102.0314769
  19 BEND      1  2 10                  1.9532177     111.9111288
  20 BEND      1  3  7                  1.9772006     113.2852515
  21 BEND      1  3  6                  1.8054715     103.4458979
  22 BEND      1  3  8                  1.8933117     108.4787702
  23 BEND      1  2 11                  1.9207654     110.0517481
  24 BEND      2  9 12                  1.9858875     113.7829713
  25 BEND      2  9  6                  1.8915429     108.3774261
  26 BEND      2  1  5                  2.0002482     114.6057785
  27 BEND      2  9 12                  1.9858875     113.7829713
  28 BEND      2  1  4                  1.8915669     108.3787998
  29 BEND      2  9 14                  2.1165130     121.2672608
  30 BEND      2  1  3                  1.7783587     101.8924490
  31 BEND      3  1  5                  2.0073972     115.0153846
  32 BEND      3  1  4                  1.8812183     107.7858662
  33 BEND      3  6  9                  1.8333325     105.0422135
  34 BEND      3  6 12                  1.9475181     111.5845670
  35 BEND      3  6 13                  2.0614620     118.1130737
  36 BEND      3  6 12                  1.9475181     111.5845670
  37 BEND      4  1  5                  1.8976440     108.7269906
  38 BEND      6 12  9                  0.7589118      43.4824444
  39 BEND      6  3  8                  1.9130074     109.6072475
  40 BEND      6  3  7                  1.9805605     113.4777566
  41 BEND      6 12  9                  0.7589118      43.4824444
  42 BEND      6 12  9                  0.7589118      43.4824444
  43 BEND      6  9 12                  1.1833768      67.8024966
  44 BEND      6  9 12                  1.1833768      67.8024966
  45 BEND      6  9 14                  2.2526354     129.0665028
  46 BEND      6 12  9                  0.7589118      43.4824444
  47 BEND      7  3  8                  1.8914786     108.3737428
  48 BEND      9  6 12                  1.1993040      68.7150589
  49 BEND      9  2 10                  1.9148326     109.7118240
  50 BEND      9  6 13                  1.8028284     103.2944559
  51 BEND      9  2 11                  1.9765207     113.2462939
  52 BEND      9  6 12                  1.1993040      68.7150589
  53 BEND     10  2 11                  1.9151661     109.7309324
  54 BEND     12  6 13                  2.2659992     129.8321910
  55 BEND     12  6 13                  2.2659992     129.8321910
  56 BEND     12  9 14                  1.7370553      99.5259378
  57 BEND     12  9 14                  1.7370553      99.5259378
  58 TORSION   1  2  9 12              -1.7117451     -98.0757694
  59 TORSION   1  2  9 14               2.5009157     143.2919147
  60 TORSION   1  3  6  9               0.4716749      27.0249815
  61 TORSION   1  3  6 12               1.7399634      99.6925579
  62 TORSION   1  3  6 13              -1.5254572     -87.4022587
  63 TORSION   1  2  9  6              -0.4337552     -24.8523413
  64 TORSION   2  9 12  6               1.7642898     101.0863619
  65 TORSION   2  1  3  6              -0.7404390     -42.4240304
  66 TORSION   2  1  3  7              -2.8922053    -165.7111549
  67 TORSION   2  1  3  8               1.2900592      73.9149452
  68 TORSION   2  9  6 12              -1.9001183    -108.8687581
  69 TORSION   2  9  6 13               2.1507596     123.2294505
  70 TORSION   2  9  6  3              -0.0203100      -1.1636798
  71 TORSION   3  1  2  9               0.7150146      40.9673213
  72 TORSION   3  1  2 11               2.8179534     161.4568386
  73 TORSION   3  1  2 10              -1.3308988     -76.2548870
  74 TORSION   3  6 12  9              -1.7167238     -98.3610312
  75 TORSION   3  6  9 12               1.8798082     107.7050783
  76 TORSION   3  6  9 14              -2.9337504    -168.0915142
  77 TORSION   4  1  3  6               1.2483696      71.5263069
  78 TORSION   4  1  2  9              -1.2661075     -72.5426147
  79 TORSION   4  1  2 11               0.8368313      47.9469027
  80 TORSION   4  1  3  7              -0.9033967     -51.7608176
  81 TORSION   4  1  3  8              -3.0043176    -172.1347175
  82 TORSION   4  1  2 10               2.9711643     170.2351771
  83 TORSION   5  1  3  7               1.2163247      69.6902709
  84 TORSION   5  1  2 11              -1.2858099     -73.6714791
  85 TORSION   5  1  3  8              -0.8845962     -50.6836290
  86 TORSION   5  1  2  9               2.8944366     165.8390036
  87 TORSION   5  1  2 10               0.8485231      48.6167953
  88 TORSION   5  1  3  6              -2.9150944    -167.0226046
  89 TORSION   6 12  9 14              -2.2417239    -128.4413200
  90 TORSION   6  9  2 10               1.6395903      93.9416045
  91 TORSION   6  9  2 11              -2.4973537    -143.0878285
  92 TORSION   7  3  6 13               0.6240912      35.7577902
  93 TORSION   7  3  6 12              -2.3936736    -137.1473933
  94 TORSION   7  3  6  9               2.6212233     150.1850303
  95 TORSION   8  3  6 13               2.7412068     157.0595778
  96 TORSION   8  3  6 12              -0.2765580     -15.8456056
  97 TORSION   8  3  6  9              -1.5448465     -88.5131821
  98 TORSION   9 12  6 13               1.5672117      89.7946140
  99 TORSION  10  2  9 12               0.3616004      20.7181763
 100 TORSION  10  2  9 14              -1.7089241     -97.9141396
 101 TORSION  11  2  9 12               2.5078417     143.6887433
 102 TORSION  11  2  9 14               0.4373172      25.0564274
 103 TORSION  12  6  9 14               1.4696267      84.2034075
 104 TORSION  12  9  6 13              -2.2323074    -127.9017914
 105 TORSION  13  6  9 14              -0.7626807     -43.6983839

     ------------------------------------------
     THE POINT GROUP IS C1 , NAXIS= 0, ORDER= 1
     ------------------------------------------

     DIMENSIONS OF THE SYMMETRY SUBSPACES ARE
 A   =   52

 ..... DONE SETTING UP THE RUN .....
 STEP CPU TIME =     0.04 TOTAL CPU TIME =          0.0 (      0.0 MIN)
 TOTAL WALL CLOCK TIME=          0.1 SECONDS, CPU UTILIZATION IS    66.67%


          -----------------------------
          STATIONARY POINT LOCATION RUN
          -----------------------------


           ** GEOMETRY CONSTRAINTS ARE BEING APPLIED. **

          TRANSFORMING DISPLACEMENT FROM INTERNALS TO CARTESIANS
          THE ROOT MEAN SQUARE ERROR IN ITERATION   1 IS   0.00001022
          THE ROOT MEAN SQUARE ERROR IN ITERATION   2 IS   0.00000000
 WARNING! THE RADIUS IN CARTESIANS IS    0.02399
 OBTAINING INITIAL HESSIAN, HESS=CALC    

     ---------------------------------
     HESSIAN MATRIX CONTROL PARAMETERS
     ---------------------------------
     METHOD=ANALYTIC   NVIB  =       2   VIBSIZ= 0.01000
     RDHESS=       F   PURIFY=       F   PRTIFC=       F
     VIBANL=       F   DECOMP=       F   PROJCT=       F
     SCLFAC= 1.00000   PRTSCN=       F   NPRT  =       0
     PULCOR=       F   NPUN  =       0   REDOVB=       T
     HSSTYP=GENERAL 
 Old integral subroutine is used

     ------------------------------
     CPHF RESPONSE SOLUTION OPTIONS
     ------------------------------
     POLAR  =       F     NWORD  =       0
     CPHF   =AO      

          ********************
          1 ELECTRON INTEGRALS
          ********************
 ...... END OF ONE-ELECTRON INTEGRALS ......
 STEP CPU TIME =     0.03 TOTAL CPU TIME =          0.1 (      0.0 MIN)
 TOTAL WALL CLOCK TIME=          0.1 SECONDS, CPU UTILIZATION IS    77.78%

          -------------
          GUESS OPTIONS
          -------------
          GUESS =HUCKEL            NORB  =       0          NORDER=       0
          MIX   =       F          PRTMO =       F          PUNMO =       F
          TOLZ  = 1.0E-08          TOLE  = 1.0E-05
          SYMDEN=       F          PURIFY=       F

 INITIAL GUESS ORBITALS GENERATED BY HUCKEL   ROUTINE.
 HUCKEL GUESS REQUIRES     39958 WORDS.

 SYMMETRIES FOR INITIAL GUESS ORBITALS FOLLOW.   BOTH SET(S).
    37 ORBITALS ARE OCCUPIED (   19 CORE ORBITALS).
    20=A       21=A       22=A       23=A       24=A       25=A       26=A   
    27=A       28=A       29=A       30=A       31=A       32=A       33=A   
    34=A       35=A       36=A       37=A       38=A       39=A       40=A   
    41=A       42=A       43=A       44=A       45=A       46=A       47=A   
 ...... END OF INITIAL ORBITAL SELECTION ......
 STEP CPU TIME =     0.02 TOTAL CPU TIME =          0.1 (      0.0 MIN)
 TOTAL WALL CLOCK TIME=          0.1 SECONDS, CPU UTILIZATION IS    81.82%

                    ----------------------
                    AO INTEGRAL TECHNOLOGY
                    ----------------------
     S,P,L SHELL ROTATED AXIS INTEGRALS, REPROGRAMMED BY
        KAZUYA ISHIMURA (IMS) AND JOSE SIERRA (SYNSTAR).
     S,P,D,L SHELL ROTATED AXIS INTEGRALS PROGRAMMED BY
        KAZUYA ISHIMURA (INSTITUTE FOR MOLECULAR SCIENCE).
     S,P,D,F,G SHELL TO TOTAL QUARTET ANGULAR MOMENTUM SUM 5,
        ERIC PROGRAM BY GRAHAM FLETCHER (ELORET AND NASA ADVANCED
        SUPERCOMPUTING DIVISION, AMES RESEARCH CENTER).
     S,P,D,F,G,L SHELL GENERAL RYS QUADRATURE PROGRAMMED BY
        MICHEL DUPUIS (PACIFIC NORTHWEST NATIONAL LABORATORY).

          --------------------
          2 ELECTRON INTEGRALS
          --------------------

 THE -PK- OPTION IS OFF, THE INTEGRALS ARE NOT IN SUPERMATRIX FORM.
 STORING   15000 INTEGRALS/RECORD ON DISK, USING 12 BYTES/INTEGRAL.
 TWO ELECTRON INTEGRAL EVALUATION REQUIRES   90672 WORDS OF MEMORY.
 SCHWARZ INEQUALITY OVERHEAD:      1322 INTEGRALS, T=        0.00
 II,JST,KST,LST =  1  1  1  1 NREC =         1 INTLOC =    1
 II,JST,KST,LST =  2  1  1  1 NREC =         1 INTLOC =    2
 II,JST,KST,LST =  3  1  1  1 NREC =         1 INTLOC =   34
 II,JST,KST,LST =  4  1  1  1 NREC =         1 INTLOC =  142
 II,JST,KST,LST =  5  1  1  1 NREC =         1 INTLOC = 1362
 II,JST,KST,LST =  6  1  1  1 NREC =         1 INTLOC = 1943
 II,JST,KST,LST =  7  1  1  1 NREC =         1 INTLOC = 6822
 II,JST,KST,LST =  8  1  1  1 NREC =         1 INTLOC = 8858
 II,JST,KST,LST =  9  1  1  1 NREC =         1 INTLOC =11298
 II,JST,KST,LST = 10  1  1  1 NREC =         1 INTLOC =13765
 II,JST,KST,LST = 11  1  1  1 NREC =         3 INTLOC =  746
 II,JST,KST,LST = 12  1  1  1 NREC =         3 INTLOC = 6743
 II,JST,KST,LST = 13  1  1  1 NREC =         3 INTLOC =13574
 II,JST,KST,LST = 14  1  1  1 NREC =         4 INTLOC = 5368
 II,JST,KST,LST = 15  1  1  1 NREC =         7 INTLOC = 1347
 II,JST,KST,LST = 16  1  1  1 NREC =         7 INTLOC =14644
 II,JST,KST,LST = 17  1  1  1 NREC =         8 INTLOC =14317
 II,JST,KST,LST = 18  1  1  1 NREC =         9 INTLOC =10894
 II,JST,KST,LST = 19  1  1  1 NREC =        13 INTLOC = 8800
 II,JST,KST,LST = 20  1  1  1 NREC =        19 INTLOC = 5386
 II,JST,KST,LST = 21  1  1  1 NREC =        31 INTLOC = 7565
 II,JST,KST,LST = 22  1  1  1 NREC =        44 INTLOC = 7334
 II,JST,KST,LST = 23  1  1  1 NREC =        48 INTLOC = 7613
 SCHWARZ INEQUALITY TEST SKIPPED        7480 INTEGRAL BLOCKS.
 TOTAL NUMBER OF NONZERO TWO-ELECTRON INTEGRALS =              776650
         52 INTEGRAL RECORDS WERE STORED ON DISK FILE  8.
  ...... END OF TWO-ELECTRON INTEGRALS .....
 STEP CPU TIME =     0.15 TOTAL CPU TIME =          0.2 (      0.0 MIN)
 TOTAL WALL CLOCK TIME=          0.3 SECONDS, CPU UTILIZATION IS    92.31%

          --------------------------
                 RHF SCF CALCULATION
          --------------------------

     NUCLEAR ENERGY =       434.8781814184
     MAXIT =   30     NPUNCH=    2
     EXTRAP=T  DAMP=F  SHIFT=F  RSTRCT=F  DIIS=F  DEM=F  SOSCF=T
     DENSITY MATRIX CONV=  1.00E-05
     SOSCF WILL OPTIMIZE     555 ORBITAL ROTATIONS, SOGTOL=   0.250
     MEMORY REQUIRED FOR RHF ITERS=     51876 WORDS.

 ITER EX DEM     TOTAL ENERGY        E CHANGE  DENSITY CHANGE     ORB. GRAD
   1  0  0    -2736.6322385348 -2736.6322385348  12.328521972   0.000000000
          ---------------START SECOND ORDER SCF---------------
   2  1  0    -2737.1847243697    -0.5524858350   0.192758820   0.033432504
   3  2  0    -2737.1982145158    -0.0134901461   0.082600520   0.006714721
   4  3  0    -2737.2003724290    -0.0021579132   0.025604356   0.003560654
   5  4  0    -2737.2007670635    -0.0003946345   0.034394500   0.002377987
   6  5  0    -2737.2010216318    -0.0002545683   0.005975350   0.001025715
   7  6  0    -2737.2010505303    -0.0000288984   0.003586303   0.000560470
   8  7  0    -2737.2010586351    -0.0000081049   0.000914496   0.000130801
   9  8  0    -2737.2010591260    -0.0000004909   0.000282931   0.000052652
  10  9  0    -2737.2010592041    -0.0000000781   0.000092672   0.000019974
  11 10  0    -2737.2010592106    -0.0000000065   0.000031117   0.000006829
  12 11  0    -2737.2010592114    -0.0000000009   0.000003698   0.000000717
  13 12  0    -2737.2010592115    -0.0000000000   0.000000961   0.000000211

          -----------------
          DENSITY CONVERGED
          -----------------
     TIME TO FORM FOCK OPERATORS=       0.2 SECONDS (       0.0 SEC/ITER)
     TIME TO SOLVE SCF EQUATIONS=       0.1 SECONDS (       0.0 SEC/ITER)

 FINAL RHF ENERGY IS    -2737.2010592115 AFTER  13 ITERATIONS

          ------------
          EIGENVECTORS
          ------------

                      1          2          3          4          5
                 -484.5545   -63.4659   -57.5966   -57.5945   -57.5942
                     A          A          A          A          A   
    1  C  1  S   -0.000000  -0.000005  -0.000001   0.000001   0.000000
    2  C  1  S    0.000000   0.000033   0.000005  -0.000001  -0.000000
    3  C  1  X    0.000000   0.000007   0.000000  -0.000001   0.000001
    4  C  1  Y   -0.000000  -0.000006  -0.000001   0.000005   0.000001
    5  C  1  Z    0.000000   0.000042   0.000002  -0.000002  -0.000000
    6  C  2  S   -0.000000  -0.000007   0.000000   0.000001   0.000001
    7  C  2  S    0.000001   0.000217   0.000010  -0.000025  -0.000020
    8  C  2  X    0.000001   0.000104   0.000005  -0.000006  -0.000004
    9  C  2  Y   -0.000000  -0.000011  -0.000004   0.000001   0.000003
   10  C  2  Z    0.000001   0.000158   0.000013   0.000009  -0.000007
   11  C  3  S   -0.000000  -0.000005   0.000000   0.000001  -0.000001
   12  C  3  S    0.000002   0.000237   0.000011  -0.000032   0.000013
   13  C  3  X   -0.000001  -0.000084  -0.000003   0.000007  -0.000000
   14  C  3  Y    0.000000   0.000010  -0.000004  -0.000001  -0.000003
   15  C  3  Z    0.000001   0.000174   0.000012   0.000004   0.000009
   16  H  4  S   -0.000000  -0.000036  -0.000004  -0.000000  -0.000000
   17  H  5  S    0.000000   0.000003  -0.000000  -0.000002  -0.000000
   18  C  6  S    0.000002   0.000369   0.000034  -0.000003   0.000023
   19  C  6  S   -0.000013  -0.002278  -0.000228   0.000019  -0.000166
   20  C  6  X   -0.000003  -0.000509  -0.000080   0.000003  -0.000020
   21  C  6  Y    0.000008   0.001475   0.000142   0.000057   0.000100
   22  C  6  Z   -0.000012  -0.002047  -0.000202   0.000079  -0.000118
   23  H  7  S   -0.000000  -0.000044  -0.000002   0.000006  -0.000001
   24  H  8  S   -0.000003  -0.000524  -0.000021   0.000049  -0.000020
   25  C  9  S    0.000002   0.000366   0.000035   0.000001  -0.000021
   26  C  9  S   -0.000013  -0.002214  -0.000236  -0.000002   0.000146
   27  C  9  X    0.000001   0.000193   0.000039   0.000005  -0.000003
   28  C  9  Y    0.000008   0.001445   0.000153   0.000069  -0.000070
   29  C  9  Z   -0.000011  -0.001962  -0.000196   0.000027   0.000121
   30  H 10  S   -0.000002  -0.000433  -0.000019   0.000032   0.000030
   31  H 11  S   -0.000000  -0.000046  -0.000003   0.000007   0.000003
   32  BR12  S    0.994692   0.419584  -0.000713  -0.000009   0.000047
   33  BR12  S    0.014824  -1.059811   0.001815   0.000023  -0.000121
   34  BR12  X    0.000000  -0.000066   0.033926  -0.164982   0.978499
   35  BR12  Y    0.000005  -0.000880  -0.586611   0.786323   0.152922
   36  BR12  Z   -0.000006   0.001211   0.800301   0.583360   0.070608
   37  BR12  S   -0.073371   2.443621  -0.003831  -0.000059   0.000286
   38  BR12  X    0.000000   0.000028   0.000641  -0.003093   0.018337
   39  BR12  Y   -0.000003  -0.000335  -0.011060   0.014733   0.002864
   40  BR12  Z    0.000004   0.000438   0.015088   0.010929   0.001323
   41  BR12 XX    0.032031  -1.127821   0.001787   0.000027  -0.000129
   42  BR12 YY    0.032032  -1.127842   0.001736   0.000096  -0.000121
   43  BR12 ZZ    0.032032  -1.127847   0.001695  -0.000040  -0.000142
   44  BR12 XY   -0.000000   0.000000  -0.000000  -0.000005   0.000048
   45  BR12 XZ    0.000000   0.000002   0.000001   0.000013  -0.000065
   46  BR12 YZ   -0.000001   0.000005   0.000074  -0.000024  -0.000007
   47  BR12  S    0.000099   0.019495   0.000188  -0.000007   0.000010
   48  BR12  X   -0.000001  -0.000180  -0.000061   0.000226  -0.001343
   49  BR12  Y    0.000009   0.001468   0.000919  -0.001041  -0.000199
   50  BR12  Z   -0.000011  -0.001904  -0.001247  -0.000766  -0.000099
   51  H 13  S   -0.000001  -0.000164  -0.000017   0.000027  -0.000000
   52  H 14  S   -0.000000  -0.000104   0.000009  -0.000021   0.000011

                      6          7          8          9         10
                  -10.8300   -10.8113   -10.8045   -10.6498   -10.6165
                     A          A          A          A          A   
    1  C  1  S    0.991881   0.006324   0.004555   0.000346   0.000333
    2  C  1  S    0.037592  -0.005651  -0.005888   0.000087   0.000073
    3  C  1  X    0.000033  -0.003696   0.003277   0.000032  -0.000088
    4  C  1  Y   -0.000620   0.002124   0.002576   0.000320   0.000325
    5  C  1  Z   -0.000193  -0.000946  -0.001356   0.000154   0.000180
    6  C  2  S   -0.005410   0.991887   0.009159   0.001300   0.000209
    7  C  2  S   -0.006091   0.037285   0.000288  -0.005829   0.000210
    8  C  2  X    0.003439  -0.000444   0.000298   0.001087   0.000016
    9  C  2  Y   -0.002430   0.000342   0.000202   0.004073  -0.000010
   10  C  2  Z    0.000924  -0.000003  -0.000214   0.001187  -0.000108
   11  C  3  S   -0.003549  -0.009041   0.991897   0.000303   0.001290
   12  C  3  S   -0.006054  -0.000407   0.037279   0.000121  -0.005998
   13  C  3  X   -0.003024  -0.000361   0.000448  -0.000161  -0.001443
   14  C  3  Y   -0.002785   0.000171   0.000538   0.000003   0.003951
   15  C  3  Z    0.001300  -0.000152   0.000216  -0.000117   0.001651
   16  H  4  S   -0.006858  -0.000010  -0.000023  -0.000131  -0.000074
   17  H  5  S   -0.006803   0.000072   0.000093  -0.000167  -0.000176
   18  C  6  S   -0.000213  -0.000153  -0.000297  -0.002536   0.991806
   19  C  6  S    0.000031   0.000265  -0.005526  -0.005859   0.037084
   20  C  6  X   -0.000100   0.000010   0.001278  -0.004257   0.003664
   21  C  6  Y   -0.000093   0.000078  -0.003631  -0.000682   0.002593
   22  C  6  Z    0.000162  -0.000043  -0.001377   0.000815  -0.001570
   23  H  7  S    0.000141  -0.000112  -0.006828  -0.000088   0.000057
   24  H  8  S    0.000019   0.000075  -0.006891   0.000080   0.000015
   25  C  9  S   -0.000232  -0.000324  -0.000234   0.991857   0.003283
   26  C  9  S    0.000059  -0.005669   0.000119   0.036621  -0.006510
   27  C  9  X    0.000199  -0.001173   0.000014  -0.001048   0.004956
   28  C  9  Y   -0.000131  -0.003768  -0.000099  -0.000112  -0.000344
   29  C  9  Z    0.000112  -0.001217  -0.000095   0.001174   0.000465
   30  H 10  S    0.000063  -0.006866  -0.000001  -0.000027   0.000054
   31  H 11  S    0.000143  -0.006840  -0.000237   0.000031  -0.000054
   32  BR12  S   -0.000000   0.000000   0.000001   0.000027   0.000025
   33  BR12  S    0.000001   0.000001   0.000001  -0.000088  -0.000082
   34  BR12  X    0.000000   0.000001   0.000000  -0.000063   0.000069
   35  BR12  Y    0.000003  -0.000002  -0.000004  -0.000062  -0.000046
   36  BR12  Z    0.000000   0.000001   0.000002   0.000070   0.000067
   37  BR12  S    0.000002  -0.000004  -0.000007  -0.000597  -0.000550
   38  BR12  X    0.000000  -0.000002  -0.000001   0.000211  -0.000229
   39  BR12  Y   -0.000009   0.000008   0.000014   0.000212   0.000157
   40  BR12  Z   -0.000001  -0.000003  -0.000005  -0.000240  -0.000228
   41  BR12 XX   -0.000003   0.000006   0.000010   0.000290   0.000259
   42  BR12 YY   -0.000002   0.000008   0.000011   0.000273   0.000254
   43  BR12 ZZ   -0.000003   0.000006   0.000009   0.000262   0.000239
   44  BR12 XY    0.000000   0.000002  -0.000002  -0.000023   0.000024
   45  BR12 XZ   -0.000000  -0.000001   0.000002   0.000028  -0.000032
   46  BR12 YZ   -0.000000  -0.000003  -0.000003   0.000033   0.000028
   47  BR12  S   -0.000001   0.000084   0.000078  -0.003009  -0.002897
   48  BR12  X    0.000001   0.000060  -0.000052  -0.001737   0.001981
   49  BR12  Y    0.000049   0.000049   0.000021  -0.002073  -0.001654
   50  BR12  Z    0.000016  -0.000021  -0.000010   0.002452   0.002304
   51  H 13  S    0.000076  -0.000042   0.000056  -0.000207  -0.006992
   52  H 14  S   -0.000066   0.000089  -0.000085  -0.006785  -0.000007

                     11         12         13         14         15
                   -8.9586    -6.6537    -6.6418    -6.6400    -2.0383
                     A          A          A          A          A   
    1  C  1  S   -0.000010   0.000019  -0.000024  -0.000005  -0.000004
    2  C  1  S    0.000050  -0.000126   0.000063   0.000018  -0.000038
    3  C  1  X    0.000010  -0.000011   0.000029  -0.000036  -0.000007
    4  C  1  Y   -0.000022   0.000056  -0.000148  -0.000034  -0.000001
    5  C  1  Z    0.000062  -0.000076   0.000066   0.000006  -0.000045
    6  C  2  S    0.000011  -0.000032   0.000002  -0.000008  -0.000056
    7  C  2  S    0.000244  -0.000230   0.000548   0.000497   0.000506
    8  C  2  X    0.000146  -0.000171   0.000178   0.000127  -0.000503
    9  C  2  Y    0.000028   0.000037   0.000063  -0.000009  -0.000623
   10  C  2  Z    0.000149  -0.000199  -0.000265   0.000099   0.000722
   11  C  3  S    0.000020  -0.000044   0.000009   0.000000  -0.000051
   12  C  3  S    0.000260  -0.000217   0.000723  -0.000269   0.000527
   13  C  3  X   -0.000135   0.000146  -0.000252   0.000021   0.000706
   14  C  3  Y    0.000061   0.000006   0.000131   0.000020  -0.000624
   15  C  3  Z    0.000168  -0.000181  -0.000161  -0.000166   0.000613
   16  H  4  S   -0.000044   0.000097   0.000006   0.000002  -0.000142
   17  H  5  S    0.000005  -0.000002   0.000057   0.000010  -0.000002
   18  C  6  S    0.000618  -0.000949   0.000094  -0.000649   0.003220
   19  C  6  S   -0.003196   0.006741  -0.000632   0.004494  -0.010283
   20  C  6  X   -0.000669   0.002137  -0.000044   0.000303  -0.006669
   21  C  6  Y    0.001952  -0.003857  -0.001485  -0.002715   0.005960
   22  C  6  Z   -0.002669   0.005360  -0.002177   0.003003  -0.009082
   23  H  7  S   -0.000056   0.000077  -0.000153   0.000011   0.000023
   24  H  8  S   -0.000704   0.000581  -0.001424   0.000503   0.000384
   25  C  9  S    0.000623  -0.001018  -0.000043   0.000578   0.003448
   26  C  9  S   -0.003068   0.006862   0.000237  -0.003820  -0.011483
   27  C  9  X    0.000278  -0.001101  -0.000113  -0.000128   0.004560
   28  C  9  Y    0.001896  -0.004125  -0.001959   0.001708   0.007323
   29  C  9  Z   -0.002572   0.005316  -0.000634  -0.003161  -0.009362
   30  H 10  S   -0.000583   0.000519  -0.000885  -0.000868   0.000264
   31  H 11  S   -0.000057   0.000087  -0.000161  -0.000067  -0.000022
   32  BR12  S    0.170426   0.001819   0.000033  -0.000143   0.000186
   33  BR12  S   -0.524630  -0.005633  -0.000101   0.000442  -0.000517
   34  BR12  X   -0.000265  -0.011903   0.083834  -0.409200   0.000116
   35  BR12  Y   -0.002352   0.248493  -0.327486  -0.074352  -0.000766
   36  BR12  Z    0.003207  -0.335214  -0.245761  -0.040562   0.001028
   37  BR12  S    2.305876   0.023314   0.000487  -0.002015   0.003288
   38  BR12  X    0.000678   0.030352  -0.213909   1.044119  -0.000297
   39  BR12  Y    0.005861  -0.633805   0.835637   0.189730   0.001919
   40  BR12  Z   -0.007995   0.854998   0.627106   0.103497  -0.002574
   41  BR12 XX   -0.552497  -0.002897  -0.000151   0.000681   0.455402
   42  BR12 YY   -0.551236  -0.005391   0.003108   0.001008  -0.004057
   43  BR12 ZZ   -0.550411  -0.007532  -0.003325  -0.000229  -0.453653
   44  BR12 XY   -0.000116  -0.000052  -0.000311   0.002321   0.023029
   45  BR12 XZ    0.000043   0.000069   0.000777  -0.003085  -0.059632
   46  BR12 YZ   -0.001537   0.004037  -0.001126  -0.000326   0.848225
   47  BR12  S    0.032070  -0.006212   0.000141  -0.000174   0.007123
   48  BR12  X   -0.000178   0.001768  -0.009402   0.045821  -0.000573
   49  BR12  Y    0.002394  -0.031865   0.035785   0.007992   0.005955
   50  BR12  Z   -0.003127   0.042840   0.026710   0.004562  -0.007968
   51  H 13  S   -0.000185   0.000336  -0.000609  -0.000033  -0.000468
   52  H 14  S   -0.000249  -0.000027   0.000709  -0.000409   0.001389

                     16         17         18         19         20
                   -2.0343    -2.0333    -2.0207    -2.0207    -0.8578
                     A          A          A          A          A   
    1  C  1  S   -0.000027  -0.000008   0.000007  -0.000022  -0.128157
    2  C  1  S    0.000045   0.000019  -0.000048   0.000105   0.337480
    3  C  1  X    0.000019  -0.000033   0.000055   0.000030   0.005041
    4  C  1  Y   -0.000188  -0.000055   0.000059  -0.000157  -0.058209
    5  C  1  Z    0.000033   0.000010   0.000008  -0.000006   0.019473
    6  C  2  S    0.000006  -0.000043  -0.000027   0.000034  -0.110787
    7  C  2  S    0.000927   0.001078  -0.000452  -0.000415   0.290390
    8  C  2  X   -0.000074  -0.000004  -0.000072   0.000052  -0.059521
    9  C  2  Y   -0.000199  -0.000641  -0.000129   0.000297  -0.000933
   10  C  2  Z   -0.000495   0.000381   0.000150  -0.000046  -0.012708
   11  C  3  S    0.000008   0.000038   0.000002   0.000054  -0.107530
   12  C  3  S    0.001314  -0.000575   0.000688   0.000009   0.280541
   13  C  3  X    0.000005  -0.000146   0.000027  -0.000167   0.058852
   14  C  3  Y   -0.000408   0.000520  -0.000116   0.000384   0.007801
   15  C  3  Z   -0.000297  -0.000588  -0.000094  -0.000129  -0.018147
   16  H  4  S    0.000008   0.000007  -0.000010   0.000038   0.074667
   17  H  5  S    0.000052   0.000011  -0.000008   0.000030   0.070370
   18  C  6  S    0.000809  -0.002890   0.000235  -0.000372  -0.082406
   19  C  6  S   -0.003412   0.013150  -0.000969   0.001812   0.198075
   20  C  6  X   -0.001058   0.004316   0.000325  -0.001155   0.045550
   21  C  6  Y   -0.002389  -0.007706  -0.001459  -0.002061   0.039082
   22  C  6  Z   -0.005955   0.008920  -0.002594   0.001203   0.017800
   23  H  7  S   -0.000136   0.000026  -0.000042  -0.000069   0.054354
   24  H  8  S   -0.000841   0.000228  -0.000670  -0.000799   0.062855
   25  C  9  S   -0.000544   0.002753   0.000079  -0.000288  -0.088505
   26  C  9  S    0.002490  -0.012818  -0.000142   0.001459   0.216639
   27  C  9  X   -0.000353   0.002123  -0.000454   0.001572  -0.039918
   28  C  9  Y   -0.005579   0.005716   0.002029  -0.000204   0.028493
   29  C  9  Z   -0.000788  -0.009669   0.000736   0.001592   0.029562
   30  H 10  S   -0.000508  -0.000519   0.000838   0.000002   0.063802
   31  H 11  S   -0.000116  -0.000115   0.000086  -0.000011   0.057980
   32  BR12  S   -0.000008   0.000015  -0.000012   0.000072  -0.007275
   33  BR12  S    0.000028  -0.000050   0.000040  -0.000231   0.022716
   34  BR12  X    0.000357  -0.001254  -0.000071   0.000152  -0.000023
   35  BR12  Y   -0.001139  -0.000449   0.000125  -0.000043   0.005436
   36  BR12  Z   -0.000934  -0.000061   0.000052   0.000162  -0.005647
   37  BR12  S   -0.000078   0.000158  -0.000116   0.000918  -0.109827
   38  BR12  X   -0.000938   0.003295   0.000193  -0.000410   0.000064
   39  BR12  Y    0.003045   0.001206  -0.000343   0.000136  -0.016199
   40  BR12  Z    0.002507   0.000159  -0.000129  -0.000463   0.016831
   41  BR12 XX   -0.017197   0.057780  -0.347486   0.816705   0.028343
   42  BR12 YY   -0.791223  -0.240747   0.248264  -0.504461   0.022873
   43  BR12 ZZ    0.808470   0.182859   0.099294  -0.312861   0.021880
   44  BR12 XY    0.182731  -0.563378   0.729396   0.341167   0.000432
   45  BR12 XZ   -0.196406   0.778351   0.554530   0.209943  -0.000237
   46  BR12 YZ    0.273092   0.113792   0.179703  -0.399902   0.008226
   47  BR12  S    0.000357  -0.000580   0.000507  -0.001185   0.168683
   48  BR12  X   -0.001053   0.003959  -0.000161   0.000208   0.000614
   49  BR12  Y    0.000794   0.000015   0.000389  -0.000671   0.034363
   50  BR12  Z    0.000214   0.000432  -0.000397   0.000979  -0.034700
   51  H 13  S   -0.001263  -0.000029  -0.000421  -0.000213   0.035887
   52  H 14  S   -0.000074   0.000563  -0.000547  -0.000424   0.041097

                     21         22         23         24         25
                   -0.7280    -0.6762    -0.5631    -0.5137    -0.4295
                     A          A          A          A          A   
    1  C  1  S    0.120730   0.002282  -0.111702   0.063471  -0.003684
    2  C  1  S   -0.343443  -0.006367   0.347804  -0.202835   0.012030
    3  C  1  X    0.001322   0.163187  -0.004901   0.005065  -0.149968
    4  C  1  Y   -0.005713   0.009901   0.140326  -0.051714   0.051925
    5  C  1  Z   -0.007936  -0.009777  -0.035859   0.126586   0.009668
    6  C  2  S    0.036268  -0.154579   0.057905  -0.071431   0.030548
    7  C  2  S   -0.098278   0.448629  -0.179349   0.224245  -0.094874
    8  C  2  X    0.030309   0.029571  -0.049293   0.103568   0.015133
    9  C  2  Y   -0.090744   0.003192   0.093589   0.034606  -0.184993
   10  C  2  Z    0.005161  -0.005181  -0.002575   0.112690  -0.047880
   11  C  3  S    0.039846   0.151344   0.062505  -0.076526  -0.028972
   12  C  3  S   -0.108023  -0.438000  -0.192987   0.239937   0.088917
   13  C  3  X   -0.019852   0.019994   0.035947  -0.093049  -0.085310
   14  C  3  Y   -0.090633  -0.002788   0.094012   0.033299   0.199731
   15  C  3  Z    0.006679   0.001020  -0.005373   0.130521   0.061900
   16  H  4  S   -0.094927  -0.002277   0.151285  -0.170010   0.008813
   17  H  5  S   -0.108837  -0.001557   0.201227  -0.076699   0.050433
   18  C  6  S   -0.091089   0.059285   0.057742   0.078514   0.115761
   19  C  6  S    0.238625  -0.160892  -0.165563  -0.231547  -0.364525
   20  C  6  X    0.080523   0.036525  -0.006385  -0.094987   0.064795
   21  C  6  Y   -0.034430  -0.051338  -0.086469   0.002723  -0.008709
   22  C  6  Z    0.024699  -0.020338   0.039229   0.098039   0.007045
   23  H  7  S   -0.036643  -0.149826  -0.074792   0.126250   0.123979
   24  H  8  S   -0.023645  -0.131626  -0.065677   0.188202   0.080917
   25  C  9  S   -0.101178  -0.053853   0.055585   0.077581  -0.124051
   26  C  9  S    0.271622   0.148757  -0.160314  -0.233638   0.397401
   27  C  9  X   -0.063868   0.060538   0.010192   0.095962   0.201847
   28  C  9  Y   -0.059038   0.053717  -0.080260   0.032094  -0.086610
   29  C  9  Z    0.042472   0.018432   0.034769   0.078906  -0.019664
   30  H 10  S   -0.020928   0.137919  -0.066193   0.181353  -0.073531
   31  H 11  S   -0.035019   0.157604  -0.066997   0.112312  -0.062817
   32  BR12  S   -0.020308   0.000793  -0.023303  -0.014056   0.002835
   33  BR12  S    0.063981  -0.002503   0.074448   0.045212  -0.009161
   34  BR12  X    0.000566   0.003617   0.001313   0.000509   0.015810
   35  BR12  Y    0.007807  -0.000206  -0.004163  -0.002855   0.000183
   36  BR12  Z   -0.011063   0.000119   0.002545   0.010699  -0.004027
   37  BR12  S   -0.304143   0.011844  -0.345233  -0.207080   0.041661
   38  BR12  X   -0.001704  -0.010824  -0.003946  -0.001532  -0.047531
   39  BR12  Y   -0.023316   0.000612   0.012513   0.008583  -0.000552
   40  BR12  Z    0.033036  -0.000351  -0.007675  -0.032137   0.012113
   41  BR12 XX    0.073383  -0.002616   0.077760   0.044579  -0.009531
   42  BR12 YY    0.068843  -0.002675   0.079960   0.045736  -0.008517
   43  BR12 ZZ    0.062230  -0.002684   0.078513   0.052703  -0.010912
   44  BR12 XY    0.000247  -0.003451  -0.000241   0.000059  -0.005425
   45  BR12 XZ   -0.000173   0.002729   0.000098   0.000144   0.008522
   46  BR12 YZ    0.011025  -0.000223  -0.002216  -0.005394   0.000435
   47  BR12  S    0.512095  -0.020311   0.656134   0.414590  -0.086135
   48  BR12  X    0.006362   0.027994   0.012903   0.005426   0.138329
   49  BR12  Y    0.052023  -0.000972  -0.035378  -0.019800   0.001145
   50  BR12  Z   -0.073874   0.000406   0.021661   0.086715  -0.035224
   51  H 13  S    0.052972  -0.042018  -0.065748  -0.127413  -0.169201
   52  H 14  S    0.079438   0.049292  -0.036821  -0.090879   0.329206

                     26         27         28         29         30
                   -0.3929    -0.3715    -0.3120    -0.2631    -0.2257
                     A          A          A          A          A   
    1  C  1  S    0.022118   0.004369  -0.001545   0.019429   0.008697
    2  C  1  S   -0.076959  -0.017096   0.006530  -0.079033  -0.031735
    3  C  1  X   -0.001204   0.025549  -0.193719  -0.026194   0.207297
    4  C  1  Y    0.083306   0.348836  -0.026325   0.240147   0.130314
    5  C  1  Z   -0.259329   0.219319  -0.013127  -0.319049   0.203779
    6  C  2  S   -0.018106   0.008688  -0.008309   0.009737  -0.023506
    7  C  2  S    0.057881  -0.030344   0.028147  -0.036953   0.094577
    8  C  2  X    0.253726   0.154512  -0.005245   0.116954  -0.200234
    9  C  2  Y    0.078015   0.119091  -0.129790  -0.163383  -0.091622
   10  C  2  Z   -0.178740   0.159507   0.365671   0.116363  -0.208694
   11  C  3  S   -0.016692   0.015584   0.006392   0.011310   0.013230
   12  C  3  S    0.054997  -0.051263  -0.021844  -0.040921  -0.051241
   13  C  3  X   -0.265726  -0.122047  -0.056325  -0.106793  -0.277792
   14  C  3  Y   -0.014540  -0.003820   0.117895  -0.171199  -0.021036
   15  C  3  Z   -0.153698   0.114955  -0.336797   0.106493  -0.170335
   16  H  4  S    0.200610  -0.166093   0.026674   0.322883  -0.262943
   17  H  5  S   -0.066011   0.370521  -0.022502   0.056004   0.233943
   18  C  6  S   -0.018376  -0.061198   0.002926  -0.009616   0.008022
   19  C  6  S    0.062059   0.201080  -0.018681   0.041687  -0.027320
   20  C  6  X   -0.103747  -0.010913  -0.021193   0.065722   0.079817
   21  C  6  Y   -0.035075  -0.121865   0.024867   0.025742   0.047091
   22  C  6  Z   -0.073809  -0.062708  -0.110571   0.239299   0.078789
   23  H  7  S    0.271762   0.036573   0.186193  -0.000735   0.335711
   24  H  8  S   -0.101743   0.080850  -0.324850   0.107542  -0.218958
   25  C  9  S    0.020404  -0.006707   0.006763  -0.013488  -0.031827
   26  C  9  S   -0.068600   0.021467  -0.020269   0.055575   0.118680
   27  C  9  X    0.078151  -0.023153   0.004879  -0.073587  -0.104688
   28  C  9  Y   -0.038161  -0.159389   0.002757   0.055904   0.203409
   29  C  9  Z   -0.082576  -0.048371   0.088483   0.201175   0.110638
   30  H 10  S   -0.077965   0.149449   0.354130   0.135758  -0.240284
   31  H 11  S    0.302667   0.058301  -0.226138  -0.039881  -0.050882
   32  BR12  S   -0.004487   0.006466  -0.001055   0.005909  -0.000459
   33  BR12  S    0.014599  -0.021056   0.003501  -0.019543   0.001393
   34  BR12  X   -0.001253  -0.003333   0.011555  -0.006175  -0.001348
   35  BR12  Y   -0.010598   0.003950  -0.001909   0.033046   0.009085
   36  BR12  Z    0.003110  -0.014320   0.002432  -0.013182   0.000470
   37  BR12  S   -0.065399   0.094469  -0.015124   0.085104  -0.007376
   38  BR12  X    0.003767   0.010025  -0.034794   0.018604   0.004068
   39  BR12  Y    0.031866  -0.011869   0.005740  -0.099514  -0.027382
   40  BR12  Z   -0.009339   0.043068  -0.007311   0.039635  -0.001432
   41  BR12 XX    0.013049  -0.020850   0.003578  -0.017877   0.002993
   42  BR12 YY    0.017788  -0.019430   0.003335  -0.023391  -0.000512
   43  BR12 ZZ    0.015005  -0.026095   0.003991  -0.019803   0.002327
   44  BR12 XY    0.000346   0.000851  -0.003660   0.001195  -0.000317
   45  BR12 XZ   -0.000597  -0.001275   0.001976  -0.001524  -0.000852
   46  BR12 YZ   -0.003540   0.002840  -0.000821   0.006780   0.002923
   47  BR12  S    0.142529  -0.206694   0.037617  -0.206398   0.008921
   48  BR12  X   -0.011435  -0.030418   0.108009  -0.057434  -0.012071
   49  BR12  Y   -0.094144   0.032010  -0.015919   0.309499   0.085494
   50  BR12  Z    0.022959  -0.125437   0.020092  -0.112798   0.007285
   51  H 13  S    0.114918   0.168141   0.083906  -0.216358  -0.140963
   52  H 14  S    0.058096   0.094978  -0.047732  -0.159213  -0.203243

                     31         32         33         34         35
                   -0.2188    -0.1989    -0.1800    -0.1281    -0.0802
                     A          A          A          A          A   
    1  C  1  S   -0.008009   0.014176   0.010057   0.010127  -0.004000
    2  C  1  S    0.031091  -0.058567  -0.039642  -0.041917   0.017427
    3  C  1  X    0.443096   0.016150  -0.105280   0.077299   0.005558
    4  C  1  Y   -0.073803   0.215436   0.001261   0.040426  -0.049981
    5  C  1  Z   -0.146498  -0.033474  -0.071723  -0.024327   0.016795
    6  C  2  S   -0.013655  -0.005486  -0.022411   0.018233   0.017777
    7  C  2  S    0.055076   0.025835   0.087634  -0.075296  -0.073638
    8  C  2  X   -0.360399  -0.040195  -0.017476   0.052737   0.009685
    9  C  2  Y    0.162634  -0.322356  -0.210131   0.135944   0.175152
   10  C  2  Z    0.137410  -0.015356  -0.055168  -0.027661   0.033509
   11  C  3  S    0.018446   0.004279   0.038354  -0.009600   0.014231
   12  C  3  S   -0.075880  -0.012620  -0.157246   0.035725  -0.060071
   13  C  3  X   -0.285489   0.019037  -0.122628   0.008002  -0.029184
   14  C  3  Y   -0.100100  -0.259210   0.378276  -0.064811   0.128790
   15  C  3  Z    0.144922   0.067674   0.261270   0.049580  -0.029625
   16  H  4  S    0.149116   0.038986   0.090222   0.011150  -0.013653
   17  H  5  S   -0.161132   0.215171  -0.063030   0.011991  -0.060084
   18  C  6  S    0.015056  -0.013969   0.014367   0.009016   0.006664
   19  C  6  S   -0.054101   0.043214  -0.062033  -0.066778  -0.027167
   20  C  6  X   -0.064534  -0.232049   0.167998   0.107361   0.131334
   21  C  6  Y   -0.083520   0.157930  -0.251903   0.196577  -0.005002
   22  C  6  Z   -0.047738  -0.120177  -0.257257  -0.190833  -0.039961
   23  H  7  S    0.183300  -0.136453   0.057251  -0.031106   0.074164
   24  H  8  S    0.140013   0.096086   0.233599   0.089743  -0.021957
   25  C  9  S   -0.001322  -0.010852  -0.017549   0.000893  -0.015114
   26  C  9  S    0.003035   0.029830   0.066633   0.014522   0.053298
   27  C  9  X    0.051101   0.230402  -0.183780  -0.151187  -0.090642
   28  C  9  Y   -0.107138   0.248066   0.216741  -0.087993  -0.081527
   29  C  9  Z   -0.061181  -0.057770   0.019954   0.143913  -0.174437
   30  H 10  S    0.103814   0.003205  -0.006836  -0.043876   0.046410
   31  H 11  S   -0.332665  -0.155029  -0.029159   0.108663   0.033400
   32  BR12  S    0.000596  -0.003811  -0.001128  -0.000339  -0.000541
   33  BR12  S   -0.001899   0.013001   0.003723   0.001170   0.001735
   34  BR12  X    0.004157   0.001998  -0.006219   0.082236  -0.023078
   35  BR12  Y   -0.006059  -0.009796  -0.007209   0.014756   0.064774
   36  BR12  Z   -0.003723   0.045724   0.002910   0.011898   0.061221
   37  BR12  S    0.009037  -0.053046  -0.016491  -0.004741  -0.008161
   38  BR12  X   -0.012537  -0.006019   0.018766  -0.248203   0.069689
   39  BR12  Y    0.018266   0.029448   0.021731  -0.044549  -0.195619
   40  BR12  Z    0.011231  -0.137756  -0.008762  -0.035893  -0.184827
   41  BR12 XX   -0.002821   0.009196   0.005869   0.003158   0.002934
   42  BR12 YY   -0.000495   0.011447   0.003865  -0.000278   0.003327
[...]
                   Y -0.31055817 -0.22582362  0.50147243 -0.02660604 -0.21393281
                   Z  0.09153269  0.01193158  0.00271330 -0.01046815  0.13911476
  8   H            X  0.17509095  0.04807331  0.09254150 -0.08336176 -0.07200408
                   Y  0.44350260 -0.00750644  0.10882830 -0.42892039 -0.33857229
                   Z -0.08277693 -0.02848836 -0.04604311  0.03636002  0.01200512
  9   C            X -0.00249121  0.01344565 -0.02105627 -0.00764998 -0.02337819
                   Y  0.00286259 -0.00035821  0.00428872 -0.00878270 -0.01201989
                   Z  0.02035352  0.00527062  0.03251477  0.01517015  0.03370446
 10   H            X -0.07447397  0.36268833  0.02169987  0.11321743 -0.05788385
                   Y -0.05356192 -0.32662537  0.03260910 -0.15129531  0.03612643
                   Z  0.10868713 -0.00590488 -0.03863496  0.04279244  0.00050256
 11   H            X  0.29814573 -0.29727472 -0.09398567  0.09897742 -0.04536690
                   Y -0.29797424  0.20318319  0.14284448 -0.14711221  0.06563506
                   Z  0.03598933 -0.03009982 -0.01362540  0.00531780 -0.00986247
 12   BR           X -0.00075899 -0.00057635  0.00136778  0.00077019  0.00039368
                   Y  0.00066435 -0.00058508  0.00297813  0.00127065  0.00314450
                   Z -0.00009885  0.00038729 -0.00149160 -0.00085372 -0.00049116
 13   H            X -0.11061065  0.05551947 -0.41799086 -0.14710103 -0.28146023
                   Y  0.09356723  0.01083890  0.29960097  0.12926890  0.25752322
                   Z -0.03148257 -0.02134227  0.02648498 -0.00063310 -0.02881965
 14   H            X -0.03117622  0.07507687 -0.24754381 -0.05991639  0.01943188
                   Y  0.08894334  0.08004384 -0.10185603 -0.02888362  0.26101280
                   Z -0.10120102 -0.01822097 -0.08072337 -0.02089667 -0.19877860

 TRANS. SAYVETZ    X -0.00000009  0.00000030 -0.00000244 -0.00000023 -0.00000148
                   Y -0.00000046  0.00000012  0.00000220  0.00000131  0.00000108
                   Z  0.00000008 -0.00000117  0.00000260  0.00000058  0.00000068
               TOTAL  0.00000047  0.00000121  0.00000419  0.00000145  0.00000195

   ROT. SAYVETZ    X -0.07818548 -0.01024896 -0.08576505 -0.02914393 -0.07711273
                   Y  0.01396752  0.03958551 -0.02289145  0.00181072 -0.00894596
                   Z -0.00822756  0.04620741 -0.07992051 -0.00889653 -0.03760489
               TOTAL  0.07984832  0.06170234  0.11944434  0.03052533  0.08625852

                           31          32          33          34          35
       FREQUENCY:      1703.60     1825.04     1863.87     1904.48     3405.55  
        SYMMETRY:         A           A           A           A           A   
    REDUCED MASS:      1.17988     1.12617     1.09614     1.12137     1.08545
    IR INTENSITY:      1.28023     0.05934     0.20907     0.38726     2.95126

  1   C            X -0.03828403 -0.01181091  0.01807116  0.01529481  0.00068242
                   Y  0.00243920  0.01333136 -0.07219779 -0.03786285 -0.00036391
                   Z  0.01205328 -0.00229192  0.01805253  0.01011455 -0.00016116
  2   C            X  0.02787085  0.00054318  0.02517806 -0.08030312 -0.00752437
                   Y -0.03822805 -0.00012729  0.00774416 -0.01197667 -0.00000178
                   Z -0.02026662  0.00033476 -0.00979299  0.02767710  0.00646187
  3   C            X -0.00079213  0.07181184  0.02007524  0.00466125  0.00100663
                   Y -0.04209644 -0.03072950 -0.00821188  0.00292079  0.00022116
                   Z  0.00306585 -0.05115427 -0.01054237 -0.00437094  0.00009402
  4   H            X  0.12506512  0.02332047 -0.03169151 -0.02666428 -0.00103416
                   Y  0.03748091 -0.13381485  0.56382424  0.20759620 -0.00060436
                   Z -0.03990027 -0.06249009  0.23713540  0.10648192 -0.00097914
  5   H            X  0.08214751  0.08073804 -0.18721950 -0.09139247 -0.00063929
                   Y  0.04608228 -0.06960524  0.32114477  0.11204462  0.00138727
                   Z -0.04223857  0.09820756 -0.48309144 -0.18483594  0.00242201
  6   C            X  0.00874857 -0.00051460 -0.00424148  0.00093295 -0.00045999
                   Y  0.03468307  0.02172722  0.00825426  0.00348345  0.00055175
                   Z  0.02233861  0.00225337  0.00104260 -0.00367578  0.00402268
  7   H            X  0.05303573 -0.16289101 -0.02585033 -0.01591352 -0.01350307
                   Y  0.16580261  0.09506406  0.00681693 -0.02216631  0.00010321
                   Z -0.06182127  0.62471573  0.12668826  0.04772399 -0.00519956
  8   H            X  0.05010015 -0.62433441 -0.12838268 -0.03954594 -0.00013258
                   Y  0.04475503  0.11693718  0.02034257  0.00250415 -0.00010980
                   Z -0.00348244 -0.06015840 -0.01058508 -0.00390335  0.00572863
  9   C            X -0.05345120 -0.00560179 -0.00092094  0.00252244  0.05047936
                   Y -0.04904572 -0.00148566  0.00076826 -0.00051847 -0.04470639
                   Z  0.01164562 -0.00222313 -0.00186756  0.00070153 -0.04291170
 10   H            X  0.00084523  0.01078474 -0.13134723  0.33271106  0.04176644
                   Y  0.03263433 -0.00148067 -0.02070057  0.01475799  0.02972038
                   Z -0.05065695 -0.01156324  0.21344203 -0.52718421  0.03836653
 11   H            X  0.05924545  0.00834286 -0.21026751  0.52848915  0.03373237
                   Y  0.11708917  0.00944997 -0.10913387  0.25139296 -0.00290617
                   Z -0.02158049  0.00153934 -0.06670279  0.18370860 -0.13056992
 12   BR           X -0.00225708 -0.00016999 -0.00007409  0.00028018 -0.00025745
                   Y  0.00022936 -0.00060823 -0.00032348 -0.00000364 -0.00020666
                   Z  0.00084861  0.00019724  0.00015584  0.00000301  0.00005642
 13   H            X  0.04576994  0.00715150  0.01385986 -0.00308067 -0.02323524
                   Y -0.06571723 -0.02019132 -0.01093363 -0.00289340 -0.02658912
                   Z  0.05607712  0.01825138  0.00524716  0.00071120 -0.07191120
 14   H            X  0.42621941  0.02213703  0.01417444 -0.02914293 -0.54288714
                   Y  0.70229221  0.01892777  0.01175673 -0.03960173  0.54264298
                   Z -0.24620431  0.00808107  0.00266768  0.01454182  0.54462801

 TRANS. SAYVETZ    X  0.00000062  0.00000003 -0.00000058  0.00000030 -0.00000024
                   Y -0.00000066 -0.00000011  0.00000014 -0.00000003 -0.00000055
                   Z -0.00000205 -0.00000018  0.00000018  0.00000011 -0.00000063
               TOTAL  0.00000224  0.00000021  0.00000062  0.00000032  0.00000087

   ROT. SAYVETZ    X  0.05259818  0.01232455  0.00475727 -0.00032597  0.03025249
                   Y -0.04194363 -0.00646445 -0.00138394  0.00171275  0.00188475
                   Z -0.04530664 -0.01006299 -0.00190939  0.00296805  0.03343673
               TOTAL  0.08110812  0.01717403  0.00530968  0.00344225  0.04513070

                           36          37          38          39          40
       FREQUENCY:      3464.80     3524.18     3554.35     3571.21     3600.19  
        SYMMETRY:         A           A           A           A           A   
    REDUCED MASS:      1.06448     1.08757     1.06466     1.06882     1.10657
    IR INTENSITY:      2.11326     1.33984     0.72814     0.89250     1.45275

  1   C            X -0.00104292  0.00067735 -0.01962833 -0.00598557  0.00326197
                   Y -0.00428112 -0.00203131  0.05913840  0.02307366 -0.00003952
                   Z  0.00336190  0.00114386 -0.01844817 -0.00881906  0.00862878
  2   C            X  0.04811146  0.00242648  0.00559698  0.00209786 -0.03695658
                   Y  0.01746757  0.00120962 -0.00050016 -0.00074908 -0.03704678
                   Z -0.04517868 -0.00144538 -0.00653520 -0.00456938 -0.07274362
  3   C            X  0.00069894  0.00741173  0.02182615 -0.06010202  0.00147342
                   Y  0.00001182  0.00192622 -0.00587571  0.01133855 -0.00020352
                   Z -0.00001450 -0.00061132 -0.00657143  0.02485947 -0.00059787
  4   H            X -0.02670957 -0.00950056  0.21954073  0.08510776 -0.02556083
                   Y  0.02352193  0.00675069 -0.18682261 -0.07059914  0.02394719
                   Z -0.07403787 -0.02379623  0.59427902  0.22353661 -0.07379267
  5   H            X  0.00045597 -0.00080858 -0.00647899 -0.00337816 -0.00175661
                   Y  0.04697680  0.01160520 -0.48106068 -0.16993716 -0.02880627
                   Z  0.03809023  0.01165764 -0.37970236 -0.13423571 -0.02135364
  6   C            X  0.00004445 -0.01614598  0.00015177 -0.00150515  0.00031750
                   Y  0.00086174 -0.02721964  0.00089298 -0.00642620  0.00045422
                   Z  0.00410255 -0.07448031  0.00194145 -0.01048949 -0.00029197
  7   H            X -0.00507602 -0.10660126 -0.26581809  0.67872943 -0.01579875
                   Y  0.00125168  0.01099573  0.03606286 -0.08715620  0.00188572
                   Z -0.00307041 -0.03982557 -0.09870583  0.25270800 -0.00564258
  8   H            X  0.00014743 -0.00074531  0.00271302 -0.00734701  0.00003176
                   Y  0.00027371  0.00485002  0.01000526 -0.03661606  0.00097798
                   Z  0.00189652  0.05621874  0.17833458 -0.51931109  0.01088135
  9   C            X  0.00694064  0.00279055  0.00052089  0.00170635  0.00036984
                   Y -0.00596867 -0.00164485 -0.00049584 -0.00156049 -0.00048494
                   Z -0.00695843 -0.00583898 -0.00037700 -0.00143847  0.00021903
 10   H            X -0.31589351 -0.01503520 -0.01332754  0.00461395  0.55317447
                   Y -0.24959297 -0.01053456 -0.01109767  0.00380164  0.44697137
                   Z -0.26034573 -0.01140740 -0.01197735  0.00292889  0.41192232
 11   H            X -0.21295599 -0.00696375 -0.02361274 -0.01387131 -0.13081082
                   Y  0.01535029  0.00063600  0.00003563 -0.00081898 -0.00912633
                   Z  0.79119444  0.02621820  0.08633814  0.04976953  0.44090164
 12   BR           X -0.00005562 -0.00008878 -0.00004227  0.00002669  0.00001575
                   Y -0.00000639 -0.00048381 -0.00000351 -0.00001296 -0.00000340
                   Z -0.00001115  0.00039151 -0.00001568  0.00002025  0.00001704
 13   H            X -0.01085092  0.22493979 -0.00561811  0.03100763  0.00023232
                   Y -0.01674867  0.30104181 -0.00604810  0.03853941  0.00018720
                   Z -0.04648277  0.86397573 -0.01636011  0.10929350  0.00006941
 14   H            X -0.07669189 -0.04451888 -0.00490866 -0.01743273 -0.00527639
                   Y  0.08312578  0.04307317  0.00623706  0.01807625  0.00859869
                   Z  0.08571150  0.05351828  0.00611120  0.01916462  0.00707144

 TRANS. SAYVETZ    X -0.00000034  0.00000024  0.00000059  0.00000029  0.00000007
                   Y  0.00000050 -0.00000000 -0.00000018  0.00000009 -0.00000007
                   Z  0.00000059  0.00000005 -0.00000031 -0.00000041  0.00000008
               TOTAL  0.00000084  0.00000025  0.00000069  0.00000051  0.00000013

   ROT. SAYVETZ    X  0.00490488 -0.00604822  0.00055054 -0.00045678  0.00004093
                   Y  0.00007711 -0.00191788 -0.00001853 -0.00016274  0.00003417
                   Z  0.00434113  0.00371365  0.00032949  0.00136346  0.00031257
               TOTAL  0.00655051  0.00735190  0.00064187  0.00144712  0.00031708

                           41          42
       FREQUENCY:      3674.09     3702.76  
        SYMMETRY:         A           A   
    REDUCED MASS:      1.11050     1.10907
    IR INTENSITY:      0.67702     0.45054

  1   C            X -0.01782426 -0.00334228
                   Y -0.03107117 -0.00403222
                   Z -0.08255449 -0.01424939
  2   C            X -0.00263830 -0.00007450
                   Y -0.00257266 -0.00035255
                   Z -0.00604122 -0.00165793
  3   C            X  0.00836564 -0.04098535
                   Y -0.00012275  0.00072898
                   Z  0.01388603 -0.07993190
  4   H            X  0.21017516  0.03867263
                   Y -0.18675496 -0.04022295
                   Z  0.55376068  0.10910913
  5   H            X  0.00026630  0.00071854
                   Y  0.54866202  0.08455136
                   Z  0.41529024  0.06530169
  6   C            X  0.00010122 -0.00008168
                   Y  0.00034026 -0.00069389
                   Z -0.00017308 -0.00118021
  7   H            X -0.09509736  0.49021430
                   Y  0.01349254 -0.06376264
                   Z -0.03345122  0.17579982
  8   H            X -0.00197994 -0.00368510
                   Y -0.01037823  0.05381207
                   Z -0.12521801  0.76680591
  9   C            X -0.00007026  0.00042744
                   Y -0.00010161  0.00026653
                   Z  0.00005424 -0.00025793
 10   H            X  0.04521228  0.00729955
                   Y  0.03495810  0.00532172
                   Z  0.03198949  0.00526619
 11   H            X -0.01527426 -0.00366053
                   Y -0.00071308  0.00046985
                   Z  0.04715290  0.01195639
 12   BR           X  0.00000111 -0.00006319
                   Y -0.00000439 -0.00004238
                   Z  0.00000457  0.00000636
 13   H            X  0.00039902  0.00303109
                   Y -0.00051638  0.00859501
                   Z  0.00074852  0.01847085
 14   H            X -0.00012115 -0.00307100
                   Y  0.00080552  0.00317157
                   Z  0.00034008  0.00505667

 TRANS. SAYVETZ    X  0.00000004  0.00000004
                   Y  0.00000010 -0.00000005
                   Z  0.00000030  0.00000003
               TOTAL  0.00000032  0.00000007

   ROT. SAYVETZ    X  0.00008941 -0.00010881
                   Y -0.00000942  0.00007237
                   Z -0.00011584  0.00010587
               TOTAL  0.00014663  0.00016819

 REFERENCE ON SAYVETZ CONDITIONS - A. SAYVETZ, J.CHEM.PHYS., 7, 383-389(1939).

 NOTE - THE MODES J,K ARE ORTHONORMALIZED ACCORDING TO
 SUM ON I   M(I) * (X(I,J)*X(I,K) + Y(I,J)*Y(I,K) + Z(I,J)*Z(I,K)) = DELTA(J,K)

  MODE FREQ(CM**-1)  SYMMETRY  RED. MASS  IR INTENS.
     1     406.203    A        5.210346    2.928809
     2     211.273    A        4.552408    0.495421
     3     127.522    A        5.010788    0.042159
     4       0.280    A       10.498644    0.000000
     5       0.032    A       10.498675    0.000000
     6       0.189    A       10.498266    0.000000
     7      67.653    A        3.202258    0.015681
     8     130.514    A        1.934990    0.003352
     9     258.833    A        2.902922    0.114652
    10     377.212    A        2.008046    0.652763
    11     492.912    A        4.255154    0.408285
    12     640.769    A        2.342191    0.023266
    13     753.077    A        3.212330    0.621140
    14     802.135    A        3.866089    1.271728
    15     900.010    A        1.296499    0.011927
    16     971.221    A        1.819794    0.990076
    17    1036.765    A        2.022024    0.242461
    18    1063.619    A        2.376556    0.059798
    19    1122.178    A        1.318498    0.369535
    20    1177.017    A        1.780308    0.055320
    21    1233.351    A        1.567789    0.061624
    22    1255.398    A        1.607703    0.443454
    23    1355.269    A        2.048045    0.516566
    24    1408.506    A        1.471638    0.261297
    25    1453.714    A        1.424333    0.085291
    26    1480.882    A        1.350338    0.037522
    27    1514.676    A        1.155816    0.110694
    28    1562.615    A        1.339065    0.571523
    29    1592.943    A        1.418568    0.108818
    30    1622.496    A        1.521295    0.181435
    31    1703.596    A        1.179879    1.280231
    32    1825.042    A        1.126168    0.059341
    33    1863.873    A        1.096137    0.209066
    34    1904.480    A        1.121368    0.387262
    35    3405.550    A        1.085449    2.951257
    36    3464.805    A        1.064481    2.113258
    37    3524.177    A        1.087571    1.339839
    38    3554.350    A        1.064661    0.728142
    39    3571.212    A        1.068820    0.892502
    40    3600.192    A        1.106574    1.452747
    41    3674.092    A        1.110502    0.677022
    42    3702.762    A        1.109073    0.450541

     -------------------------------
     THERMOCHEMISTRY AT T=  298.15 K
     -------------------------------

 USING IDEAL GAS, RIGID ROTOR, HARMONIC NORMAL MODE APPROXIMATIONS.
 P=  1.01325E+05 PASCAL.
 ALL FREQUENCIES ARE SCALED BY   1.00000
 THE MOMENTS OF INERTIA ARE (IN AMU*BOHR**2)
            285.73037          1285.48183          1464.57968
 THE ROTATIONAL SYMMETRY NUMBER IS  1.0
 THE ROTATIONAL CONSTANTS ARE (IN GHZ)
      6.31045     1.40266     1.23113
   1 IMAGINARY FREQUENCY VIBRATION(S) IS(ARE) EXCLUDED
     FROM THE FOLLOWING THERMOCHEMICAL ANALYSIS.
      8 -     42 VIBRATIONAL MODES ARE USED IN THERMOCHEMISTRY.
 THE HARMONIC ZERO POINT ENERGY IS (SCALED BY   1.000)
        0.136691 HARTREE/MOLECULE    30000.121642 CM**-1/MOLECULE 
       85.774738 KCAL/MOL              358.881504 KJ/MOL

               Q               LN Q
 ELEC.     1.00000E+00       0.000000
 TRANS.    7.00398E+07      18.064575
 ROT.      2.62548E+05      12.478190
 VIB.      4.58018E+00       1.521738
 TOT.      8.42241E+13      32.064503

              E         H         G         CV        CP        S
           KJ/MOL    KJ/MOL    KJ/MOL   J/MOL-K   J/MOL-K   J/MOL-K
 ELEC.      0.000     0.000     0.000     0.000     0.000     0.000
 TRANS.     3.718     6.197   -44.781    12.472    20.786   170.982
 ROT.       3.718     3.718   -30.933    12.472    12.472   116.220
 VIB.     364.909   364.909   355.109    49.800    49.800    32.869
 TOTAL    372.346   374.825   279.395    74.743    83.058   320.072
 VIB. THERMAL CORRECTION E(T)-E(0) = H(T)-H(0) =      6027.687 J/MOL

              E         H         G         CV        CP        S
         KCAL/MOL  KCAL/MOL  KCAL/MOL CAL/MOL-K CAL/MOL-K CAL/MOL-K
 ELEC.      0.000     0.000     0.000     0.000     0.000     0.000
 TRANS.     0.889     1.481   -10.703     2.981     4.968    40.866
 ROT.       0.889     0.889    -7.393     2.981     2.981    27.777
 VIB.      87.215    87.215    84.873    11.902    11.902     7.856
 TOTAL     88.993    89.585    66.777    17.864    19.851    76.499
 VIB. THERMAL CORRECTION E(T)-E(0) = H(T)-H(0) =      1440.652 CAL/MOL

     *******************************************************
     * THIS IS NOT A STATIONARY POINT ON THE MOLECULAR PES *
     *     THE VIBRATIONAL ANALYSIS IS NOT VALID !!!       *
     *******************************************************
 ......END OF NORMAL COORDINATE ANALYSIS......
 STEP CPU TIME =     0.01 TOTAL CPU TIME =        143.6 (      2.4 MIN)
 TOTAL WALL CLOCK TIME=        144.2 SECONDS, CPU UTILIZATION IS    99.52%
               997373  WORDS OF DYNAMIC MEMORY USED
 EXECUTION OF GAMESS TERMINATED NORMALLY Mon Nov 15 03:14:34 2021
 DDI: 263640 bytes (0.3 MB / 0 MWords) used by master data server.

 ----------------------------------------
 CPU timing information for all processes
 ========================================
 0: 140.53 + 3.517 = 143.571
 ----------------------------------------
 ddikick.x: exited gracefully.
----- accounting info -----
Files used on the master node chemcompute-node-0.novalocal were:
-rw-r--r--. 1 chemcomp chemcomp     1196 Nov 15 03:12 /scratch/306631/342645.F05
-rw-rw-r--. 1 chemcomp chemcomp  8820784 Nov 15 03:14 /scratch/306631/342645.F08
-rw-rw-r--. 1 chemcomp chemcomp 85196800 Nov 15 03:14 /scratch/306631/342645.F10
-rw-rw-r--. 1 chemcomp chemcomp   463344 Nov 15 03:14 /scratch/306631/342645.F18
Mon Nov 15 03:14:37 UTC 2021
0.166u 0.104s 2:28.37 0.1%	0+0k 8+216io 0pf+0w
Finishing Up...
Looking for IR data...
Looking for Raman data...
vibramans not found
Looking for thermodynamics data...
Looking for UV-Vis data...
306631
