----- GAMESS execution script 'rungms' -----
This job is running on host chemcompute-node-0.novalocal
under operating system Linux at Sat Nov 13 13:57:08 UTC 2021
SLURM has assigned the following compute nodes to this run:
chemcompute-node-0
Available scratch disk space (Kbyte units) at beginning of the job is
Filesystem     1K-blocks     Used Available Use% Mounted on
/dev/sda1       62903276 21282748  41620528  34% /
GAMESS temporary binary files will be written to /scratch/305944
GAMESS supplementary output files will be written to /data/slurm/341840
Copying input file 341840.inp to your run's scratch directory...
The generated host list is
chemcompute-node-0.novalocal

 Distributed Data Interface kickoff program.
 Initiating 1 compute processes on 1 nodes to run the following command:
 /data/gamess-2019R1-ddi/gamess.00.x 341840 

          ******************************************************
          *         GAMESS VERSION = 30 JUN 2019 (R1)          *
          *             FROM IOWA STATE UNIVERSITY             *
          * M.W.SCHMIDT, K.K.BALDRIDGE, J.A.BOATZ, S.T.ELBERT, *
          *   M.S.GORDON, J.H.JENSEN, S.KOSEKI, N.MATSUNAGA,   *
          *          K.A.NGUYEN, S.J.SU, T.L.WINDUS,           *
          *       TOGETHER WITH M.DUPUIS, J.A.MONTGOMERY       *
          *         J.COMPUT.CHEM.  14, 1347-1363(1993)        *
          **************** 64 BIT LINUX VERSION ****************

  SINCE 1993, STUDENTS AND POSTDOCS WORKING AT IOWA STATE UNIVERSITY
  AND ALSO IN THEIR VARIOUS JOBS AFTER LEAVING ISU HAVE MADE IMPORTANT
  CONTRIBUTIONS TO THE CODE:
     IVANA ADAMOVIC, CHRISTINE AIKENS, YURI ALEXEEV, POOJA ARORA,
     ANDREY ASADCHEV, ROB BELL, PRADIPTA BANDYOPADHYAY, JONATHAN BENTZ,
     COLLEEN BERTONI, BRETT BODE, KURT BRORSEN, CALEB CARLIN, GALINA CHABAN,
     WEI CHEN, CHEOL HO CHOI, PAUL DAY, ALBERT DEFUSCO, NUWAN DESILVA,
     TIM DUDLEY, DMITRI FEDOROV, ALEX FINDLATER, GRAHAM FLETCHER, 
     MARK FREITAG, KURT GLAESEMANN, ANASTASIA GUNINA,
     DAN KEMP, GRANT MERRILL, NORIYUKI MINEZAWA, JONATHAN MULLIN,
     TAKESHI NAGATA, SEAN NEDD, HEATHER NETZLOFF, BOSILJKA NJEGIC, RYAN OLSON,
     MIKE PAK, BUU PHAM,
     SPENCER PRUITT, LUKE ROSKOP, JIM SHOEMAKER, LYUDMILA SLIPCHENKO,
     TONY SMITH, SAROM SOK LEANG, JIE SONG, TETSUYA TAKETSUGU, SIMON WEBB,
     PENG XU, SOOHAENG YOO, FEDERICO ZAHARIEV

  ADDITIONAL CODE HAS BEEN PROVIDED BY COLLABORATORS IN OTHER GROUPS:
     IOWA STATE UNIVERSITY:
          JOE IVANIC, AARON WEST, LAIMUTIS BYTAUTAS, KLAUS RUEDENBERG
     UNIVERSITY OF TOKYO: KIMIHIKO HIRAO, TAKAHITO NAKAJIMA,
          TAKAO TSUNEDA, MUNEAKI KAMIYA, SUSUMU YANAGISAWA,
          KIYOSHI YAGI, MAHITO CHIBA, SEIKEN TOKURA, NAOAKI KAWAKAMI
     UNIVERSITY OF AARHUS: FRANK JENSEN
     UNIVERSITY OF IOWA: VISVALDAS KAIRYS, HUI LI
     NATIONAL INST. OF STANDARDS AND TECHNOLOGY: WALT STEVENS, DAVID GARMER
     UNIVERSITY OF PISA: BENEDETTA MENNUCCI, JACOPO TOMASI
     UNIVERSITY OF MEMPHIS: HENRY KURTZ, PRAKASHAN KORAMBATH
     UNIVERSITY OF ALBERTA: TOBY ZENG, MARIUSZ KLOBUKOWSKI
     UNIVERSITY OF NEW ENGLAND: MARK SPACKMAN
     MIE UNIVERSITY: HIROAKI UMEDA
     NAT. INST. OF ADVANCED INDUSTRIAL SCIENCE AND TECHNOLOGY: KAZUO KITAURA
     MICHIGAN STATE UNIVERSITY:
          KAROL KOWALSKI, MARTA WLOCH, JEFFREY GOUR, JESSE LUTZ,
          WEI LI, JUN SHEN, J. EMILIANO DEUSTUA, PIOTR PIECUCH
     UNIVERSITY OF MINNESOTA:
          YINAN SHU
     UNIVERSITY OF SILESIA: MONIKA MUSIAL, STANISLAW KUCHARSKI
     FACULTES UNIVERSITAIRES NOTRE-DAME DE LA PAIX:
          OLIVIER QUINET, BENOIT CHAMPAGNE
     UNIVERSITY OF CALIFORNIA - SANTA BARBARA: BERNARD KIRTMAN
     INSTITUTE FOR MOLECULAR SCIENCE:
          KAZUYA ISHIMURA, MICHIO KATOUDA, AND SHIGERU NAGASE
     UNIVERSITY OF NOTRE DAME: ANNA POMOGAEVA, DAN CHIPMAN
     KYUSHU UNIVERSITY:
          HARUYUKI NAKANO,
          FENG LONG GU, JACEK KORCHOWIEC, MARCIN MAKOWSKI, AND YURIKO AOKI,
          HIROTOSHI MORI AND EISAKU MIYOSHI
     PENNSYLVANIA STATE UNIVERSITY:
          TZVETELIN IORDANOV, CHET SWALINA, JONATHAN SKONE,
          SHARON HAMMES-SCHIFFER
     WASEDA UNIVERSITY:
          MASATO KOBAYASHI, TOMOKO AKAMA, TSUGUKI TOUMA,
          TAKESHI YOSHIKAWA, YASUHIRO IKABATA, JUNJI SEINO,
          YUYA NAKAJIMA, HIROMI NAKAI
     NANJING UNIVERSITY: SHUHUA LI
     UNIVERSITY OF NEBRASKA:
          PEIFENG SU, DEJUN SI, NANDUN THELLAMUREGE, YALI WANG, HUI LI
     UNIVERSITY OF ZURICH: ROBERTO PEVERATI, KIM BALDRIDGE
     N. COPERNICUS UNIVERSITY AND JACKSON STATE UNIVERSITY:
          MARIA BARYSZ
     UNIVERSITY OF COPENHAGEN: Jimmy Kromann, CASPER STEINMANN
     TOKYO INSTITUTE OF TECHNOLOGY: HIROYA NAKATA
     NAGOYA UNIVERSITY: YOSHIO NISHIMOTO, STEPHAN IRLE
     MOSCOW STATE UNIVERSITY: VLADIMIR MIRONOV
     A.N.NESMEYANOV INSTITUTE OF ORGANOELEMENT COMPOUNDS OF RUSSIAN ACADEMY OF SCIENCES:
          IGOR S. GERASIMOV

 EXECUTION OF GAMESS BEGUN Sat Nov 13 13:57:08 2021

            ECHO OF THE FIRST FEW INPUT CARDS -
 INPUT CARD>!File created by the GAMESS Input Deck Generator Plugin for Avogadro            
 INPUT CARD> $BASIS GBASIS=STO NGAUSS=3 $END                                                
 INPUT CARD> $CONTRL SCFTYP=RHF RUNTYP=IRC $END                                             
 INPUT CARD> $STATPT HESS=READ ihrep=5 $END                                                 
 INPUT CARD> $irc npoint=100 saddle=.t. tsengy=.t. forwrd=.t. opttol=0.0005 stride=0.1 $end 
 INPUT CARD>                                                                                
 INPUT CARD> $DATA                                                                          
 INPUT CARD>Title                                                                           
 INPUT CARD>C1                                                                              
 INPUT CARD>C     6.0    -1.04969728    -5.23015928    -1.91053021                          
 INPUT CARD>C     6.0    -1.76900375    -4.49598503    -0.95110190                          
 INPUT CARD>C     6.0    -1.34520411    -3.19445276    -0.63507968                          
 INPUT CARD>C     6.0     0.46850795    -3.32943916     0.01728281                          
 INPUT CARD>C     6.0     0.81441349    -4.68988848    -0.05062803                          
 INPUT CARD>C     6.0     0.79390699    -5.26817560    -1.33406794                          
 INPUT CARD>C     6.0     1.43508279    -4.42282820    -2.41214871                          
 INPUT CARD>C     6.0     1.61499250    -3.12680459    -2.26523495                          
 INPUT CARD>C     6.0     1.16694283    -2.41691494    -1.00749874                          
 INPUT CARD>O     8.0     1.33856952    -1.22131586    -0.81611156                          
 INPUT CARD>H     1.0    -1.31714880    -6.27490854    -2.03356314                          
 INPUT CARD>H     1.0    -0.85933310    -4.74450493    -2.86048079                          
 INPUT CARD>H     1.0    -2.25467372    -5.05941343    -0.16266720                          
 INPUT CARD>H     1.0    -1.14355087    -2.53178930    -1.46894765                          
 INPUT CARD>H     1.0    -1.85653484    -2.68500900     0.17504252                          
 INPUT CARD>H     1.0     0.40934473    -2.87866092     1.00417185                          
 INPUT CARD>H     1.0     0.64451611    -5.32095194     0.81311429                          
 INPUT CARD>H     1.0     1.03079128    -6.32558870    -1.40890074                          
 INPUT CARD>H     1.0     1.74341989    -4.93469238    -3.31731606                          
 INPUT CARD>H     1.0     2.10045338    -2.52210307    -3.01986122                          
 INPUT CARD> $END                                                                           
 INPUT CARD>                                                                                
 INPUT CARD> $HESS                                                                          
 INPUT CARD>ENERGY IS     -416.0920679036 E(NUC) IS      508.0229384070                     
 INPUT CARD> 1  1 1.30439058E-01 1.12566261E-01-1.96250543E-01-1.28697968E-01-7.51390371E-02
 INPUT CARD> 1  2 6.31234073E-02 1.49082304E-01 8.35954906E-02 4.70144271E-02-1.27033247E-01
 INPUT CARD> 1  3 9.32037568E-02-3.25285122E-02-7.38628334E-03-1.40035371E-01-1.20025167E-01
 INPUT CARD> 1  4 1.59616389E-01 5.25962264E-02 1.45017714E-01-4.27144090E-02-1.99140680E-02
 INPUT CARD> 1  5 5.31579383E-03-3.90948994E-03 1.18618739E-02-1.45352440E-04 1.11105702E-02
 INPUT CARD> 1  6-2.51535380E-03 5.29719464E-03-1.26537838E-03 3.47448724E-03-2.14845758E-03
 INPUT CARD> 1  7-7.22899306E-02-9.24433635E-02 4.37295152E-03-3.22382057E-02-3.45552899E-02
 INPUT CARD> 1  8 8.13783162E-02-2.46119597E-03 1.26807468E-02 7.76462414E-03-2.11152295E-02
 INPUT CARD> 1  9 1.81933864E-03-4.65144163E-03-2.52424312E-03-3.28895220E-03-1.65321265E-03
 INPUT CARD> 1 10 7.18216304E-03 3.10281004E-05 4.83158951E-04-6.51350857E-06-4.14905817E-05
 INPUT CARD> 1 11 1.66945955E-03-2.07887324E-02-3.43173128E-03-5.56399494E-03 1.68357389E-03
 INPUT CARD> 1 12 5.63063337E-05 2.34433022E-04 3.31398679E-03-5.23672887E-04 1.29708489E-03
 INPUT CARD> 2  1 1.12566261E-01 8.96344072E-01 4.21916045E-02 7.39079558E-02-1.97559742E-01
 INPUT CARD> 2  2-1.14592063E-01-2.07537224E-02-5.15384621E-02-5.55721729E-02 3.94436903E-02
 INPUT CARD> 2  3-2.98464461E-02 6.50064541E-03-2.93157406E-04 3.42855350E-02 2.92101242E-02
 INPUT CARD> 2  4-5.05058773E-02-5.53878109E-02-3.54692159E-02-4.26298675E-03 1.32948438E-03
 INPUT CARD> 2  5-2.45882855E-03 1.79755272E-04-2.71849918E-03 3.86690999E-04-4.81741656E-03
    1000000 WORDS OF MEMORY AVAILABLE

     BASIS OPTIONS
     -------------
     GBASIS=STO          IGAUSS=       3      POLAR=NONE    
     NDFUNC=       0     NFFUNC=       0     DIFFSP=       F
     NPFUNC=       0      DIFFS=       F     BASNAM=        


     RUN TITLE
     ---------
 Title                                                                           

 THE POINT GROUP OF THE MOLECULE IS C1      
 THE ORDER OF THE PRINCIPAL AXIS IS     0

 ATOM      ATOMIC                      COORDINATES (BOHR)
           CHARGE         X                   Y                   Z
 C           6.0    -1.9836402293       -9.8835679113       -3.6103785882
 C           6.0    -3.3429323588       -8.4961797516       -1.7973219774
 C           6.0    -2.5420671655       -6.0366403971       -1.2001265756
 C           6.0     0.8853516486       -6.2917277052        0.0326597752
 C           6.0     1.5390183368       -8.8626041402       -0.0956731040
 C           6.0     1.5002666708       -9.9554083392       -2.5210228556
 C           6.0     2.7119132428       -8.3579333888       -4.5583001035
 C           6.0     3.0518932972       -5.9088038923       -4.2806733533
 C           6.0     2.2052021920       -4.5673069722       -1.9038965516
 O           8.0     2.5295296083       -2.3079523199       -1.5422272238
 H           1.0    -2.4890503171      -11.8578577386       -3.8428771133
 H           1.0    -1.6239040912       -8.9658142651       -5.4055248862
 H           1.0    -4.2607155225       -9.5609050413       -0.3073964352
 H           1.0    -2.1609977973       -4.7843880356       -2.7759085488
 H           1.0    -3.5083421343       -5.0739312846        0.3307823990
 H           1.0     0.7735493742       -5.4398803504        1.8976096411
 H           1.0     1.2179588426      -10.0551411604        1.5365632048
 H           1.0     1.9479130697      -11.9536293540       -2.6624363425
 H           1.0     3.2945858736       -9.3252164319       -6.2688183681
 H           1.0     3.9692813382       -4.7660837151       -5.7067102267

          INTERNUCLEAR DISTANCES (ANGS.)
          ------------------------------

                1 C          2 C          3 C          4 C          5 C     

   1 C       0.0000000    1.4060286 *  2.4203717 *  3.1038923    2.6881290 *
   2 C       1.4060286 *  0.0000000    1.4047998 *  2.7027869 *  2.7427170 *
   3 C       2.4203717 *  1.4047998 *  0.0000000    1.9321878 *  2.6910704 *
   4 C       3.1038923    2.7027869 *  1.9321878 *  0.0000000    1.4053771 *
   5 C       2.6881290 *  2.7427170 *  2.6910704 *  1.4053771 *  0.0000000  
   6 C       1.9320017 *  2.7039698 *  3.0601809    2.3855256 *  1.4078546 *
   7 C       2.6603640 *  3.5222408    3.5209197    2.8340614 *  2.4562841 *
   8 C       3.4132811    3.8798236    3.3800512    2.5622988 *  2.8264185 *
   9 C       3.6936842    3.5979849    2.6559637 *  1.5397042 *  2.4912421 *
  10 O       4.7929527    4.5164911    3.3359680    2.4281139 *  3.5905014  
  11 H       1.0854347 *  2.1308365 *  3.3831569    4.0087815    3.3147968  
  12 H       1.0837457 *  2.1295517 *  2.7552028 *  3.4708927    3.2710370  
  13 H       2.1298233 *  1.0839539 *  2.1280007 *  3.2312399    3.0932827  
  14 H       2.7358736 *  2.1254224 *  1.0840308 *  2.3332081 *  3.2407788  
  15 H       3.3879773    2.1343611 *  1.0850300 *  2.4178508 *  3.3473025  
  16 H       4.0191835    3.3442540    2.4218406 *  1.0865778 *  2.1347667 *
  17 H       3.2088692    3.1013074    3.2524223    2.1518480 *  1.0831237 *
  18 H       2.4041694 *  3.3757787    4.0060162    3.3655719    2.1371100 *
  19 H       3.1413135    4.2577639    4.4454948    3.9143056    3.4050305  
  20 H       4.2997247    4.8113068    4.2440302    3.5410848    3.8948091  

                6 C          7 C          8 C          9 C         10 O     

   1 C       1.9320017 *  2.6603640 *  3.4132811    3.6936842    4.7929527  
   2 C       2.7039698 *  3.5222408    3.8798236    3.5979849    4.5164911  
   3 C       3.0601809    3.5209197    3.3800512    2.6559637 *  3.3359680  
   4 C       2.3855256 *  2.8340614 *  2.5622988 *  1.5397042 *  2.4281139 *
   5 C       1.4078546 *  2.4562841 *  2.8264185 *  2.4912421 *  3.5905014  
   6 C       0.0000000    1.5126060 *  2.4752219 *  2.8940440 *  4.1160673  
   7 C       1.5126060 *  0.0000000    1.3166732 *  2.4634587 *  3.5785934  
   8 C       2.4752219 *  1.3166732 *  0.0000000    1.5121482 *  2.4098248 *
   9 C       2.8940440 *  2.4634587 *  1.5121482 *  0.0000000    1.2229235 *
  10 O       4.1160673    3.5785934    2.4098248 *  1.2229235 *  0.0000000  
  11 H       2.4411803 *  3.3389081    4.3083272    4.7018756    5.8372791  
  12 H       2.3102749 *  2.3598351 *  3.0155529    3.5995849    4.6285076  
  13 H       3.2725534    4.3680328    4.8093747    4.4049970    5.2980543  
  14 H       3.3555544    3.3339178    2.9321798 *  2.3589219 *  2.8817455 *
  15 H       3.9968745    4.5330256    4.2663380    3.2575597    3.6515032  
  16 H       3.3652688    3.8868802    3.4934485    2.1986320 *  2.6312892 *
  17 H       2.1530199 *  3.4400499    3.9028632    3.4671303    4.4657701  
  18 H       1.0862028 *  2.1887110 *  3.3625614    3.9315889    5.1477886  
  19 H       2.2239737 *  1.0846219 *  2.0956685 *  3.4650808    4.4954525  
  20 H       3.4770500    2.1035181 *  1.0820337 *  2.2208353 *  2.6700238 *

               11 H         12 H         13 H         14 H         15 H     

   1 C       1.0854347 *  1.0837457 *  2.1298233 *  2.7358736 *  3.3879773  
   2 C       2.1308365 *  2.1295517 *  1.0839539 *  2.1254224 *  2.1343611 *
   3 C       3.3831569    2.7552028 *  2.1280007 *  1.0840308 *  1.0850300 *
   4 C       4.0087815    3.4708927    3.2312399    2.3332081 *  2.4178508 *
   5 C       3.3147968    3.2710370    3.0932827    3.2407788    3.3473025  
   6 C       2.4411803 *  2.3102749 *  3.2725534    3.3555544    3.9968745  
   7 C       3.3389081    2.3598351 *  4.3680328    3.3339178    4.5330256  
   8 C       4.3083272    3.0155529    4.8093747    2.9321798 *  4.2663380  
   9 C       4.7018756    3.5995849    4.4049970    2.3589219 *  3.2575597  
  10 O       5.8372791    4.6285076    5.2980543    2.8817455 *  3.6515032  
  11 H       0.0000000    1.7987560 *  2.4200481 *  3.7894417    4.2492652  
  12 H       1.7987560 *  0.0000000    3.0535784    2.6293069 *  3.8013598  
  13 H       2.4200481 *  3.0535784    0.0000000    3.0544797    2.4311230 *
  14 H       3.7894417    2.6293069 *  3.0544797    0.0000000    1.7984788 *
  15 H       4.2492652    3.8013598    2.4311230 *  1.7984788 *  0.0000000  
  16 H       4.8726904    4.4750930    3.6351326    2.9407694 *  2.4205716 *
  17 H       3.5863261    4.0111288    3.0701553    4.0229863    3.6892529  
  18 H       2.4301428 *  2.8599791 *  3.7350473    4.3731320    4.9091088  
  19 H       3.5792851    2.6493759 *  5.0943221    4.1862882    5.4970281  
  20 H       5.1707192    3.7047008    5.7938445    3.5956905    5.0883891  

               16 H         17 H         18 H         19 H         20 H     

   1 C       4.0191835    3.2088692    2.4041694 *  3.1413135    4.2997247  
   2 C       3.3442540    3.1013074    3.3757787    4.2577639    4.8113068  
   3 C       2.4218406 *  3.2524223    4.0060162    4.4454948    4.2440302  
   4 C       1.0865778 *  2.1518480 *  3.3655719    3.9143056    3.5410848  
   5 C       2.1347667 *  1.0831237 *  2.1371100 *  3.4050305    3.8948091  
   6 C       3.3652688    2.1530199 *  1.0862028 *  2.2239737 *  3.4770500  
   7 C       3.8868802    3.4400499    2.1887110 *  1.0846219 *  2.1035181 *
   8 C       3.4934485    3.9028632    3.3625614    2.0956685 *  1.0820337 *
   9 C       2.1986320 *  3.4671303    3.9315889    3.4650808    2.2208353 *
  10 O       2.6312892 *  4.4657701    5.1477886    4.4954525    2.6700238 *
  11 H       4.8726904    3.5863261    2.4301428 *  3.5792851    5.1707192  
  12 H       4.4750930    4.0111288    2.8599791 *  2.6493759 *  3.7047008  
  13 H       3.6351326    3.0701553    3.7350473    5.0943221    5.7938445  
  14 H       2.9407694 *  4.0229863    4.3731320    4.1862882    3.5956905  
  15 H       2.4205716 *  3.6892529    4.9091088    5.4970281    5.0883891  
  16 H       0.0000000    2.4610148 *  4.2532842    4.9681264    4.3794776  
  17 H       2.4610148 *  0.0000000    2.4689784 *  4.2915313    4.9643740  
  18 H       4.2532842    2.4689784 *  0.0000000    2.4666741 *  4.2668341  
  19 H       4.9681264    4.2915313    2.4666741 *  0.0000000    2.4569370 *
  20 H       4.3794776    4.9643740    4.2668341    2.4569370 *  0.0000000  

  * ... LESS THAN  3.000


     ATOMIC BASIS SET
     ----------------
 THE CONTRACTED PRIMITIVE FUNCTIONS HAVE BEEN UNNORMALIZED
 THE CONTRACTED BASIS FUNCTIONS ARE NOW NORMALIZED TO UNITY

  SHELL TYPE  PRIMITIVE        EXPONENT          CONTRACTION COEFFICIENT(S)

 C         

      1   S       1            71.6168373    0.154328967295
      1   S       2            13.0450963    0.535328142282
      1   S       3             3.5305122    0.444634542185

      2   L       4             2.9412494   -0.099967229187    0.155916274999
      2   L       5             0.6834831    0.399512826089    0.607683718598
      2   L       6             0.2222899    0.700115468880    0.391957393099

 C         

      3   S       7            71.6168373    0.154328967295
      3   S       8            13.0450963    0.535328142282
      3   S       9             3.5305122    0.444634542185

      4   L      10             2.9412494   -0.099967229187    0.155916274999
      4   L      11             0.6834831    0.399512826089    0.607683718598
      4   L      12             0.2222899    0.700115468880    0.391957393099

 C         

      5   S      13            71.6168373    0.154328967295
      5   S      14            13.0450963    0.535328142282
      5   S      15             3.5305122    0.444634542185

      6   L      16             2.9412494   -0.099967229187    0.155916274999
      6   L      17             0.6834831    0.399512826089    0.607683718598
      6   L      18             0.2222899    0.700115468880    0.391957393099

 C         

      7   S      19            71.6168373    0.154328967295
      7   S      20            13.0450963    0.535328142282
      7   S      21             3.5305122    0.444634542185

      8   L      22             2.9412494   -0.099967229187    0.155916274999
      8   L      23             0.6834831    0.399512826089    0.607683718598
      8   L      24             0.2222899    0.700115468880    0.391957393099

 C         

      9   S      25            71.6168373    0.154328967295
      9   S      26            13.0450963    0.535328142282
      9   S      27             3.5305122    0.444634542185

     10   L      28             2.9412494   -0.099967229187    0.155916274999
     10   L      29             0.6834831    0.399512826089    0.607683718598
     10   L      30             0.2222899    0.700115468880    0.391957393099

 C         

     11   S      31            71.6168373    0.154328967295
     11   S      32            13.0450963    0.535328142282
     11   S      33             3.5305122    0.444634542185

     12   L      34             2.9412494   -0.099967229187    0.155916274999
     12   L      35             0.6834831    0.399512826089    0.607683718598
     12   L      36             0.2222899    0.700115468880    0.391957393099

 C         

     13   S      37            71.6168373    0.154328967295
     13   S      38            13.0450963    0.535328142282
     13   S      39             3.5305122    0.444634542185

     14   L      40             2.9412494   -0.099967229187    0.155916274999
     14   L      41             0.6834831    0.399512826089    0.607683718598
     14   L      42             0.2222899    0.700115468880    0.391957393099

 C         

     15   S      43            71.6168373    0.154328967295
     15   S      44            13.0450963    0.535328142282
     15   S      45             3.5305122    0.444634542185

     16   L      46             2.9412494   -0.099967229187    0.155916274999
     16   L      47             0.6834831    0.399512826089    0.607683718598
     16   L      48             0.2222899    0.700115468880    0.391957393099

 C         

     17   S      49            71.6168373    0.154328967295
     17   S      50            13.0450963    0.535328142282
     17   S      51             3.5305122    0.444634542185

     18   L      52             2.9412494   -0.099967229187    0.155916274999
     18   L      53             0.6834831    0.399512826089    0.607683718598
     18   L      54             0.2222899    0.700115468880    0.391957393099

 O         

     19   S      55           130.7093214    0.154328967295
     19   S      56            23.8088661    0.535328142282
     19   S      57             6.4436083    0.444634542185

     20   L      58             5.0331513   -0.099967229187    0.155916274999
     20   L      59             1.1695961    0.399512826089    0.607683718598
     20   L      60             0.3803890    0.700115468880    0.391957393099

 H         

     21   S      61             3.4252509    0.154328967295
     21   S      62             0.6239137    0.535328142282
     21   S      63             0.1688554    0.444634542185

 H         

     22   S      64             3.4252509    0.154328967295
     22   S      65             0.6239137    0.535328142282
     22   S      66             0.1688554    0.444634542185

 H         

     23   S      67             3.4252509    0.154328967295
     23   S      68             0.6239137    0.535328142282
     23   S      69             0.1688554    0.444634542185

 H         

     24   S      70             3.4252509    0.154328967295
     24   S      71             0.6239137    0.535328142282
     24   S      72             0.1688554    0.444634542185

 H         

     25   S      73             3.4252509    0.154328967295
     25   S      74             0.6239137    0.535328142282
     25   S      75             0.1688554    0.444634542185

 H         

     26   S      76             3.4252509    0.154328967295
     26   S      77             0.6239137    0.535328142282
     26   S      78             0.1688554    0.444634542185

 H         

     27   S      79             3.4252509    0.154328967295
     27   S      80             0.6239137    0.535328142282
     27   S      81             0.1688554    0.444634542185

 H         

     28   S      82             3.4252509    0.154328967295
     28   S      83             0.6239137    0.535328142282
     28   S      84             0.1688554    0.444634542185

 H         

     29   S      85             3.4252509    0.154328967295
     29   S      86             0.6239137    0.535328142282
     29   S      87             0.1688554    0.444634542185

 H         

     30   S      88             3.4252509    0.154328967295
     30   S      89             0.6239137    0.535328142282
     30   S      90             0.1688554    0.444634542185

 TOTAL NUMBER OF BASIS SET SHELLS             =   30
 NUMBER OF CARTESIAN GAUSSIAN BASIS FUNCTIONS =   60
 NUMBER OF ELECTRONS                          =   72
 CHARGE OF MOLECULE                           =    0
 SPIN MULTIPLICITY                            =    1
 NUMBER OF OCCUPIED ORBITALS (ALPHA)          =   36
 NUMBER OF OCCUPIED ORBITALS (BETA )          =   36
 TOTAL NUMBER OF ATOMS                        =   20
 THE NUCLEAR REPULSION ENERGY IS      511.4280709981

     $CONTRL OPTIONS
     ---------------
 SCFTYP=RHF          RUNTYP=IRC          EXETYP=RUN     
 MPLEVL=       0     CITYP =NONE         CCTYP =NONE         VBTYP =NONE    
 DFTTYP=NONE         TDDFT =NONE    
 MULT  =       1     ICHARG=       0     NZVAR =       0     COORD =UNIQUE  
 PP    =NONE         RELWFN=NONE         LOCAL =NONE         NUMGRD=       F
 ISPHER=      -1     NOSYM =       0     MAXIT =      30     UNITS =ANGS    
 PLTORB=       F     MOLPLT=       F     AIMPAC=       F     FRIEND=        
 NPRINT=       7     IREST =       0     GEOM  =INPUT   
 NORMF =       0     NORMP =       0     ITOL  =      20     ICUT  =       9
 INTTYP=BEST         GRDTYP=BEST         QMTTOL= 1.0E-06

     $SYSTEM OPTIONS
     ---------------
  REPLICATED MEMORY=     1000000 WORDS (ON EVERY NODE).
 DISTRIBUTED MEMDDI=           0 MILLION WORDS IN AGGREGATE,
 MEMDDI DISTRIBUTED OVER   1 PROCESSORS IS           0 WORDS/PROCESSOR.
 TOTAL MEMORY REQUESTED ON EACH PROCESSOR=     1000000 WORDS.
 TIMLIM=      525600.00 MINUTES, OR     365.0 DAYS.
 PARALL= F  BALTYP=  DLB     KDIAG=    0  COREFL= F
 MXSEQ2=     300 MXSEQ3=     150  mem10=         0

          ----------------
          PROPERTIES INPUT
          ----------------

     MOMENTS            FIELD           POTENTIAL          DENSITY
 IEMOM =       1   IEFLD =       0   IEPOT =       0   IEDEN =       0
 WHERE =COMASS     WHERE =NUCLEI     WHERE =NUCLEI     WHERE =NUCLEI  
 OUTPUT=BOTH       OUTPUT=BOTH       OUTPUT=BOTH       OUTPUT=BOTH    
 IEMINT=       0   IEFINT=       0                     IEDINT=       0
                                                       MORB  =       0
          EXTRAPOLATION IN EFFECT
          SOSCF IN EFFECT
 ORBITAL PRINTING OPTION: NPREO=     1    60     2     1

     -------------------------------
     INTEGRAL TRANSFORMATION OPTIONS
     -------------------------------
     NWORD  =            0
     CUTOFF = 1.0E-09     MPTRAN =       0
     DIRTRF =       F     AOINTS =DUP     

          ----------------------
          INTEGRAL INPUT OPTIONS
          ----------------------
 NOPK  =       1 NORDER=       0 SCHWRZ=       T

     ------------------------------------------
     THE POINT GROUP IS C1 , NAXIS= 0, ORDER= 1
     ------------------------------------------

     DIMENSIONS OF THE SYMMETRY SUBSPACES ARE
 A   =   60

 ..... DONE SETTING UP THE RUN .....
 STEP CPU TIME =     0.07 TOTAL CPU TIME =          0.1 (      0.0 MIN)
 TOTAL WALL CLOCK TIME=          0.1 SECONDS, CPU UTILIZATION IS    77.78%

          -----------------------------
          INTRINSIC REACTION COORDINATE
          -----------------------------
          PACE   =GS2     
          STRIDE = 0.10000 BOHR*SQRT(AMU)
          NPOINT =     100
          NEXTPT =       0
          STOTAL =  0.0000 BOHR*SQRT(AMU)
          SAB    =  0.0000 BOHR*SQRT(AMU)
          NPRT   =       0
          NPUN   =       0

          SADDLE =       T
          TSENGY =       T
          FORWRD =       T
          EVIB   = 0.00050 HARTREE
          FREQ   =     0.0 CM**-1

          STABLZ =       F
          ELBOW  =  175.00 DEGREES
          DELTA  = 0.02500 BOHR

          READQB =       F
          EB     =        0.0000000000 HARTREES
          GBNORM =        0.0000000000 HARTREES/SQRT(AMU)-BOHR

          GCUT   = 0.0000500 HARTREES/SQRT(AMU)-BOHR
          RCUT   = 0.0005000 BOHR
          ACUT   =    5.00 DEGREES
          MXOPT  =      20
          IHUPD  =       2

 ATOMIC MASSES USED (IN AMU) ARE
     C             12.0000
     C             12.0000
     C             12.0000
     C             12.0000
     C             12.0000
     C             12.0000
     C             12.0000
     C             12.0000
     C             12.0000
     O             15.9949
     H              1.0078
     H              1.0078
     H              1.0078
     H              1.0078
     H              1.0078
     H              1.0078
     H              1.0078
     H              1.0078
     H              1.0078
     H              1.0078

 JUMP AWAY FROM SADDLE POINT WILL BE FOUND FROM THE INPUT HESSIAN MATRIX

 COMPUTING WAVEFUNCTION AT TRANSITION STATE...

          ********************
          1 ELECTRON INTEGRALS
          ********************
 ...... END OF ONE-ELECTRON INTEGRALS ......
 STEP CPU TIME =     0.04 TOTAL CPU TIME =          0.1 (      0.0 MIN)
 TOTAL WALL CLOCK TIME=          0.1 SECONDS, CPU UTILIZATION IS    78.57%

          -------------
          GUESS OPTIONS
          -------------
          GUESS =HUCKEL            NORB  =       0          NORDER=       0
          MIX   =       F          PRTMO =       F          PUNMO =       F
          TOLZ  = 1.0E-08          TOLE  = 1.0E-05
          SYMDEN=       F          PURIFY=       F

 INITIAL GUESS ORBITALS GENERATED BY HUCKEL   ROUTINE.
 HUCKEL GUESS REQUIRES     53820 WORDS.

 SYMMETRIES FOR INITIAL GUESS ORBITALS FOLLOW.   BOTH SET(S).
    36 ORBITALS ARE OCCUPIED (   10 CORE ORBITALS).
    11=A       12=A       13=A       14=A       15=A       16=A       17=A   
    18=A       19=A       20=A       21=A       22=A       23=A       24=A   
    25=A       26=A       27=A       28=A       29=A       30=A       31=A   
    32=A       33=A       34=A       35=A       36=A       37=A       38=A   
    39=A       40=A       41=A       42=A       43=A       44=A       45=A   
    46=A   
 ...... END OF INITIAL ORBITAL SELECTION ......
 STEP CPU TIME =     0.03 TOTAL CPU TIME =          0.1 (      0.0 MIN)
 TOTAL WALL CLOCK TIME=          0.2 SECONDS, CPU UTILIZATION IS    82.35%

                    ----------------------
                    AO INTEGRAL TECHNOLOGY
                    ----------------------
     S,P,L SHELL ROTATED AXIS INTEGRALS, REPROGRAMMED BY
        KAZUYA ISHIMURA (IMS) AND JOSE SIERRA (SYNSTAR).
     S,P,D,L SHELL ROTATED AXIS INTEGRALS PROGRAMMED BY
        KAZUYA ISHIMURA (INSTITUTE FOR MOLECULAR SCIENCE).
     S,P,D,F,G SHELL TO TOTAL QUARTET ANGULAR MOMENTUM SUM 5,
        ERIC PROGRAM BY GRAHAM FLETCHER (ELORET AND NASA ADVANCED
        SUPERCOMPUTING DIVISION, AMES RESEARCH CENTER).
     S,P,D,F,G,L SHELL GENERAL RYS QUADRATURE PROGRAMMED BY
        MICHEL DUPUIS (PACIFIC NORTHWEST NATIONAL LABORATORY).

          --------------------
          2 ELECTRON INTEGRALS
          --------------------

 THE -PK- OPTION IS OFF, THE INTEGRALS ARE NOT IN SUPERMATRIX FORM.
 STORING   15000 INTEGRALS/RECORD ON DISK, USING 12 BYTES/INTEGRAL.
 TWO ELECTRON INTEGRAL EVALUATION REQUIRES   89821 WORDS OF MEMORY.
 SCHWARZ INEQUALITY OVERHEAD:      1797 INTEGRALS, T=        0.00
 II,JST,KST,LST =  1  1  1  1 NREC =         1 INTLOC =    1
 II,JST,KST,LST =  2  1  1  1 NREC =         1 INTLOC =    2
 II,JST,KST,LST =  3  1  1  1 NREC =         1 INTLOC =   34
 II,JST,KST,LST =  4  1  1  1 NREC =         1 INTLOC =  144
 II,JST,KST,LST =  5  1  1  1 NREC =         1 INTLOC = 1366
 II,JST,KST,LST =  6  1  1  1 NREC =         1 INTLOC = 1964
 II,JST,KST,LST =  7  1  1  1 NREC =         1 INTLOC = 6864
 II,JST,KST,LST =  8  1  1  1 NREC =         1 INTLOC = 8483
 II,JST,KST,LST =  9  1  1  1 NREC =         2 INTLOC = 5911
 II,JST,KST,LST = 10  1  1  1 NREC =         2 INTLOC = 9715
 II,JST,KST,LST = 11  1  1  1 NREC =         4 INTLOC = 5092
 II,JST,KST,LST = 12  1  1  1 NREC =         4 INTLOC =12204
 II,JST,KST,LST = 13  1  1  1 NREC =         7 INTLOC =12345
 II,JST,KST,LST = 14  1  1  1 NREC =         8 INTLOC = 8865
 II,JST,KST,LST = 15  1  1  1 NREC =        13 INTLOC = 6438
 II,JST,KST,LST = 16  1  1  1 NREC =        14 INTLOC = 9104
 II,JST,KST,LST = 17  1  1  1 NREC =        21 INTLOC =13282
 II,JST,KST,LST = 18  1  1  1 NREC =        23 INTLOC = 9183
 II,JST,KST,LST = 19  1  1  1 NREC =        34 INTLOC = 1702
 II,JST,KST,LST = 20  1  1  1 NREC =        35 INTLOC =11861
 II,JST,KST,LST = 21  1  1  1 NREC =        47 INTLOC =13793
 II,JST,KST,LST = 22  1  1  1 NREC =        51 INTLOC = 9696
 II,JST,KST,LST = 23  1  1  1 NREC =        55 INTLOC =14094
 II,JST,KST,LST = 24  1  1  1 NREC =        60 INTLOC = 3153
 II,JST,KST,LST = 25  1  1  1 NREC =        65 INTLOC = 2113
 II,JST,KST,LST = 26  1  1  1 NREC =        70 INTLOC = 2973
 II,JST,KST,LST = 27  1  1  1 NREC =        75 INTLOC = 9896
 II,JST,KST,LST = 28  1  1  1 NREC =        81 INTLOC = 5228
 II,JST,KST,LST = 29  1  1  1 NREC =        87 INTLOC = 2921
 II,JST,KST,LST = 30  1  1  1 NREC =        93 INTLOC = 5617
 SCHWARZ INEQUALITY TEST SKIPPED       24050 INTEGRAL BLOCKS.
 TOTAL NUMBER OF NONZERO TWO-ELECTRON INTEGRALS =             1483612
         99 INTEGRAL RECORDS WERE STORED ON DISK FILE  8.
  ...... END OF TWO-ELECTRON INTEGRALS .....
 STEP CPU TIME =     0.30 TOTAL CPU TIME =          0.4 (      0.0 MIN)
 TOTAL WALL CLOCK TIME=          0.5 SECONDS, CPU UTILIZATION IS    91.67%

          --------------------------
                 RHF SCF CALCULATION
          --------------------------

     NUCLEAR ENERGY =       511.4280709981
     MAXIT =   30     NPUNCH=    2
     EXTRAP=T  DAMP=F  SHIFT=F  RSTRCT=F  DIIS=F  DEM=F  SOSCF=T
     DENSITY MATRIX CONV=  1.00E-05
     SOSCF WILL OPTIMIZE     864 ORBITAL ROTATIONS, SOGTOL=   0.250
     MEMORY REQUIRED FOR RHF ITERS=     59496 WORDS.

 ITER EX DEM     TOTAL ENERGY        E CHANGE  DENSITY CHANGE     ORB. GRAD
   1  0  0     -415.5142758908  -415.5142758908   0.525858883   0.000000000
          ---------------START SECOND ORDER SCF---------------
   2  1  0     -416.0270648537    -0.5127889629   0.302771264   0.066086527
   3  2  0     -416.0575232713    -0.0304584176   0.141993215   0.049838320
   4  3  0     -416.0929944074    -0.0354711361   0.029420382   0.007795928
   5  4  0     -416.0939323520    -0.0009379446   0.006860183   0.003107885
   6  5  0     -416.0940491717    -0.0001168197   0.002273340   0.000765408
   7  6  0     -416.0940624307    -0.0000132590   0.000765058   0.000260805
   8  7  0     -416.0940643933    -0.0000019626   0.000249461   0.000072936
   9  8  0     -416.0940645961    -0.0000002028   0.000144795   0.000030753
  10  9  0     -416.0940646366    -0.0000000405   0.000097659   0.000016899
  11 10  0     -416.0940646434    -0.0000000068   0.000028419   0.000004080
  12 11  0     -416.0940646447    -0.0000000013   0.000011249   0.000001594
  13 12  0     -416.0940646449    -0.0000000002   0.000004226   0.000000697
  14 13  0     -416.0940646449    -0.0000000000   0.000001178   0.000000249

          -----------------
          DENSITY CONVERGED
          -----------------
     TIME TO FORM FOCK OPERATORS=       0.3 SECONDS (       0.0 SEC/ITER)
     TIME TO SOLVE SCF EQUATIONS=       0.0 SECONDS (       0.0 SEC/ITER)

 FINAL RHF ENERGY IS     -416.0940646449 AFTER  14 ITERATIONS

          ------------
          EIGENVECTORS
          ------------

                      1          2          3          4          5
                  -20.2645   -11.1197   -11.0567   -11.0499   -11.0469
                     A          A          A          A          A   
    1  C  1  S   -0.000000   0.000023  -0.026121  -0.005784   0.004812
    2  C  1  S    0.000003  -0.000004  -0.004001   0.000031   0.000147
    3  C  1  X    0.000000   0.000010  -0.002577  -0.000249  -0.000029
    4  C  1  Y   -0.000003   0.000011   0.000025  -0.000076   0.000005
    5  C  1  Z    0.000000  -0.000006  -0.000855  -0.000162  -0.000021
    6  C  2  S   -0.000001   0.000011  -0.000490   0.000060  -0.001582
    7  C  2  S    0.000012  -0.000036   0.000325   0.000058   0.002288
    8  C  2  X   -0.000001   0.000033   0.000153   0.000052   0.000466
    9  C  2  Y    0.000007  -0.000035  -0.000103   0.000025   0.001454
   10  C  2  Z    0.000008  -0.000045  -0.000124  -0.000023   0.000374
   11  C  3  S   -0.000005  -0.000235  -0.000703   0.000850  -0.320667
   12  C  3  S   -0.000002   0.000319  -0.000025   0.000065  -0.014609
   13  C  3  X    0.000038  -0.000247  -0.000060   0.000018  -0.002031
   14  C  3  Y    0.000025   0.000018   0.000052   0.000026   0.000339
   15  C  3  Z    0.000014  -0.000112   0.000040   0.000008  -0.000648
   16  C  4  S   -0.000024  -0.001691  -0.004271  -0.008198   0.938514
   17  C  4  S    0.000270  -0.005340  -0.000085  -0.000325   0.035016
   18  C  4  X    0.000045  -0.001879   0.000028  -0.000055   0.000577
   19  C  4  Y    0.000432  -0.002509   0.000054   0.000057  -0.000707
   20  C  4  Z    0.000190   0.002503   0.000199   0.000153   0.000017
   21  C  5  S    0.000003  -0.000284   0.003096  -0.001096   0.004058
   22  C  5  S    0.000030   0.000056  -0.006845   0.000031  -0.006583
   23  C  5  X   -0.000051  -0.000039  -0.000033  -0.000102   0.001006
   24  C  5  Y   -0.000003  -0.000017   0.001961  -0.000021  -0.004227
   25  C  5  Z    0.000050   0.000021   0.004121   0.000102  -0.000292
   26  C  6  S    0.000003  -0.000243   0.991558   0.018901   0.004178
   27  C  6  S    0.000006  -0.000053   0.036316  -0.004975   0.000158
   28  C  6  X    0.000009  -0.000032   0.001360  -0.001816   0.000068
   29  C  6  Y   -0.000039  -0.000095   0.000538  -0.002406  -0.000185
   30  C  6  Z   -0.000006   0.000019   0.000805   0.002823   0.000045
   31  C  7  S    0.000005  -0.000271  -0.018101   0.991816   0.008062
   32  C  7  S    0.000054   0.000108  -0.006636   0.035849   0.000220
   33  C  7  X    0.000034  -0.000041   0.001683   0.000163   0.000075
   34  C  7  Y    0.000033  -0.000014   0.002358   0.001681  -0.000067
   35  C  7  Z   -0.000061   0.000077  -0.003206   0.000121  -0.000131
   36  C  8  S   -0.000025  -0.001006  -0.000980   0.020136  -0.001147
   37  C  8  S    0.000269  -0.005677   0.000303  -0.007398   0.000014
   38  C  8  X    0.000133   0.001134  -0.000034   0.000616   0.000057
   39  C  8  Y    0.000494  -0.002106  -0.000128   0.004496   0.000032
   40  C  8  Z   -0.000050  -0.003354   0.000112   0.000529   0.000002
   41  C  9  S    0.000547   0.992569   0.000254   0.000332   0.002457
   42  C  9  S   -0.007208   0.032683  -0.000002   0.000161  -0.005396
   43  C  9  X   -0.000893   0.000041   0.000006   0.000021   0.001676
   44  C  9  Y   -0.006249   0.000448   0.000115   0.000148   0.002347
   45  C  9  Z   -0.000991  -0.000120   0.000079   0.000011  -0.002788
   46  O 10  S    0.994266   0.000160   0.000005   0.000013  -0.000018
   47  O 10  S    0.026004  -0.005797  -0.000052  -0.000116   0.000222
   48  O 10  X   -0.000794   0.000243   0.000004   0.000002  -0.000065
   49  O 10  Y   -0.005496   0.001679   0.000034   0.000060  -0.000138
   50  O 10  Z   -0.000879   0.000290  -0.000002   0.000026   0.000156
   51  H 11  S   -0.000002   0.000002   0.000336  -0.000018  -0.000017
   52  H 12  S   -0.000002   0.000008   0.000336  -0.000975  -0.000033
   53  H 13  S   -0.000002   0.000007  -0.000001   0.000001  -0.000018
   54  H 14  S    0.000085  -0.001088   0.000005  -0.000049   0.002393
   55  H 15  S   -0.000007  -0.000036  -0.000022  -0.000016   0.002375
   56  H 16  S   -0.000178  -0.000019  -0.000094  -0.000002  -0.006631
   57  H 17  S   -0.000020  -0.000055   0.000086  -0.000084   0.000075
   58  H 18  S   -0.000015  -0.000024  -0.006942  -0.000096  -0.000141
   59  H 19  S   -0.000022  -0.000038   0.000207  -0.006826  -0.000109
   60  H 20  S   -0.000191   0.000013  -0.000034   0.000010  -0.000063

                      6          7          8          9         10
                  -11.0460   -11.0458   -11.0267   -11.0150   -11.0080
                     A          A          A          A          A   
    1  C  1  S   -0.198893   0.971632  -0.000210   0.000876  -0.002489
    2  C  1  S   -0.007158   0.035470   0.000043   0.000284  -0.007132
    3  C  1  X    0.000213  -0.001504   0.000010  -0.000055   0.002252
    4  C  1  Y   -0.000226   0.000436   0.000002   0.000027  -0.002415
    5  C  1  Z    0.000024  -0.000224  -0.000050  -0.000078  -0.003259
    6  C  2  S    0.002295   0.003832   0.000073  -0.016897   0.991973
    7  C  2  S   -0.004910  -0.007954   0.000026  -0.001097   0.036619
    8  C  2  X   -0.000720  -0.002429   0.000007  -0.000634   0.002587
    9  C  2  Y   -0.004371   0.001537  -0.000002   0.000092  -0.000083
   10  C  2  Z   -0.001554   0.002872   0.000006  -0.000298   0.000752
   11  C  3  S    0.919504   0.189867  -0.000272   0.000795  -0.002568
   12  C  3  S    0.032637   0.006866   0.000092   0.000295  -0.007150
   13  C  3  X   -0.001986  -0.000508  -0.000001  -0.000055   0.001273
   14  C  3  Y   -0.000236   0.000006   0.000078   0.000028   0.004353
   15  C  3  Z   -0.000999  -0.000108  -0.000032  -0.000031   0.000987
   16  C  4  S    0.315959   0.059874   0.001348  -0.003259   0.000512
   17  C  4  S    0.008671   0.001616   0.000232  -0.007194   0.000038
   18  C  4  X    0.002880   0.000614   0.000043  -0.001017   0.000019
   19  C  4  Y   -0.000369  -0.000065   0.000034   0.004486   0.000161
   20  C  4  Z    0.000939   0.000246   0.000047   0.000220   0.000022
   21  C  5  S    0.000770  -0.000593  -0.002719   0.991965   0.017130
   22  C  5  S   -0.002076  -0.000477  -0.000213   0.036580   0.000147
   23  C  5  X    0.000288   0.000039  -0.000082  -0.002217   0.000606
   24  C  5  Y   -0.001326  -0.000234  -0.000132   0.000515   0.000010
   25  C  5  Z   -0.000112  -0.000005   0.000164  -0.001240   0.000131
   26  C  6  S   -0.003362   0.027025   0.000634  -0.002284   0.000391
   27  C  6  S    0.000489  -0.001985   0.000394  -0.007128   0.000042
   28  C  6  X   -0.000455   0.002637   0.000107   0.000048   0.000043
   29  C  6  Y   -0.000120  -0.000077   0.000002  -0.001878  -0.000093
   30  C  6  Z   -0.000138   0.000782  -0.000128  -0.004196  -0.000119
   31  C  7  S    0.000726   0.005545  -0.019610   0.001154  -0.000068
   32  C  7  S    0.000015   0.000180  -0.008948   0.000136   0.000008
   33  C  7  X    0.000032  -0.000020  -0.000653  -0.000074  -0.000037
   34  C  7  Y   -0.000030  -0.000006  -0.004633  -0.000101   0.000031
   35  C  7  Z   -0.000026  -0.000076  -0.000533  -0.000143  -0.000004
   36  C  8  S   -0.000202   0.000256   0.991965   0.002810  -0.000032
   37  C  8  S    0.000063   0.000027   0.036555   0.000039  -0.000015
   38  C  8  X   -0.000024  -0.000023  -0.000264   0.000006  -0.000001
   39  C  8  Y    0.000028   0.000004  -0.001900   0.000103   0.000004
   40  C  8  Z   -0.000002  -0.000010  -0.000033  -0.000175  -0.000002
   41  C  9  S    0.001097   0.000193   0.001995   0.000354  -0.000008
   42  C  9  S   -0.001660  -0.000300  -0.005871   0.000110  -0.000015
   43  C  9  X    0.000519   0.000091  -0.001250  -0.000113  -0.000024
   44  C  9  Y    0.000763   0.000143   0.001994   0.000135  -0.000015
   45  C  9  Z   -0.000896  -0.000167   0.003465   0.000024  -0.000045
   46  O 10  S   -0.000014  -0.000002  -0.000022   0.000008  -0.000000
   47  O 10  S    0.000105   0.000017   0.000248  -0.000084   0.000008
   48  O 10  X   -0.000058  -0.000013   0.000062   0.000037   0.000006
   49  O 10  Y   -0.000059  -0.000008  -0.000118   0.000036  -0.000006
   50  O 10  Z    0.000049   0.000007  -0.000179   0.000002   0.000002
   51  H 11  S    0.001283  -0.006815  -0.000010  -0.000030   0.000098
   52  H 12  S    0.001372  -0.006827  -0.000093  -0.000065  -0.000011
   53  H 13  S    0.000034   0.000064  -0.000004   0.000130  -0.007015
   54  H 14  S   -0.006402  -0.001366  -0.000219  -0.000047  -0.000003
   55  H 15  S   -0.006352  -0.001425  -0.000019  -0.000042   0.000096
   56  H 16  S   -0.002072  -0.000411  -0.000098   0.000108  -0.000034
   57  H 17  S    0.000028   0.000006  -0.000042  -0.006928  -0.000106
   58  H 18  S   -0.000069  -0.000066  -0.000092   0.000097  -0.000047
   59  H 19  S   -0.000034   0.000003   0.000270  -0.000106  -0.000002
   60  H 20  S   -0.000024  -0.000008  -0.006866  -0.000079   0.000001

                     11         12         13         14         15
                   -1.3155    -1.0943    -1.0174    -0.9712    -0.9379
                     A          A          A          A          A   
    1  C  1  S   -0.000755  -0.059789  -0.097209   0.080168  -0.074558
    2  C  1  S    0.001830   0.158772   0.262378  -0.221553   0.213982
    3  C  1  X    0.000257   0.007211  -0.047674   0.028329   0.027440
    4  C  1  Y    0.000405   0.019837   0.041550  -0.022771  -0.017739
    5  C  1  Z    0.000298   0.021830   0.046668  -0.011861  -0.004384
    6  C  2  S   -0.001089  -0.059953  -0.141194   0.073242   0.017151
    7  C  2  S    0.002398   0.149291   0.366208  -0.194294  -0.046112
    8  C  2  X    0.000841   0.034323   0.055078  -0.023275   0.009012
    9  C  2  Y    0.000719   0.007862   0.024717   0.016543  -0.083008
   10  C  2  Z    0.000141  -0.008356  -0.012886   0.029015  -0.046240
   11  C  3  S   -0.003421  -0.054250  -0.113337   0.017272   0.095705
   12  C  3  S    0.008301   0.143965   0.306967  -0.043924  -0.271857
   13  C  3  X    0.002801   0.010224  -0.023293   0.039962  -0.003339
   14  C  3  Y    0.000755  -0.027804  -0.065811   0.035067  -0.004613
   15  C  3  Z   -0.000330  -0.006823  -0.021550   0.026132  -0.000685
   16  C  4  S   -0.021303  -0.088122  -0.014260  -0.130110   0.075472
   17  C  4  S    0.053390   0.231616   0.041435   0.361129  -0.217578
   18  C  4  X    0.012684   0.014845  -0.033853   0.034978   0.003423
   19  C  4  Y    0.016058  -0.046209  -0.000838  -0.063205  -0.055382
   20  C  4  Z   -0.017565  -0.026734   0.007068   0.006884   0.023694
   21  C  5  S   -0.005510  -0.106521   0.005210  -0.125185  -0.055111
   22  C  5  S    0.012542   0.267440  -0.013596   0.334630   0.150083
   23  C  5  X   -0.000775  -0.019795  -0.017955  -0.027542   0.002996
   24  C  5  Y    0.005497   0.026173   0.007853   0.066590  -0.093779
   25  C  5  Z   -0.001794  -0.057385   0.018794   0.000698  -0.071657
   26  C  6  S   -0.003185  -0.112356   0.030822  -0.014436  -0.131476
   27  C  6  S    0.007597   0.296679  -0.082969   0.035708   0.373976
   28  C  6  X    0.000708   0.009509  -0.046757  -0.001079  -0.001660
   29  C  6  Y    0.002726   0.051500  -0.026629   0.009188  -0.013595
   30  C  6  Z    0.000538   0.018215   0.022999   0.106359   0.028235
   31  C  7  S   -0.005954  -0.101257   0.101127   0.099191  -0.000332
   32  C  7  S    0.014149   0.257810  -0.266160  -0.267076   0.004694
   33  C  7  X    0.000048  -0.017845  -0.009310  -0.011330  -0.041233
   34  C  7  Y    0.006330   0.026634  -0.060615  -0.066891  -0.121250
   35  C  7  Z    0.002392   0.043879  -0.017005   0.016223   0.036500
   36  C  8  S   -0.021556  -0.079545   0.099511   0.095196   0.091772
   37  C  8  S    0.052420   0.199606  -0.258320  -0.252525  -0.248487
   38  C  8  X   -0.008542  -0.019415   0.010801   0.003879   0.012586
   39  C  8  Y    0.012218  -0.056811   0.063611   0.066100  -0.005216
   40  C  8  Z    0.023153   0.016007  -0.003655   0.027320  -0.024812
   41  C  9  S   -0.127526  -0.035240   0.023030  -0.013451   0.067230
   42  C  9  S    0.295209   0.097809  -0.066228   0.038138  -0.198403
   43  C  9  X    0.020639  -0.015927  -0.020223  -0.044832   0.023450
   44  C  9  Y    0.150549  -0.088605   0.043103  -0.033806   0.113439
   45  C  9  Z    0.023876  -0.011325   0.046842   0.087503   0.023690
   46  O 10  S   -0.214565   0.037890  -0.015668   0.010108  -0.047852
   47  O 10  S    0.749550  -0.141359   0.060119  -0.039616   0.191031
   48  O 10  X   -0.023890   0.000140  -0.006456  -0.010566   0.006617
   49  O 10  Y   -0.162718   0.006518   0.001688  -0.005528   0.021901
   50  O 10  Z   -0.026171   0.002077   0.008992   0.023242   0.003968
   51  H 11  S    0.000194   0.030071   0.057136  -0.056162   0.068438
   52  H 12  S    0.000434   0.038721   0.056039  -0.065721   0.062405
   53  H 13  S    0.000317   0.029481   0.083919  -0.047169  -0.011490
   54  H 14  S    0.003555   0.033581   0.070853  -0.010575  -0.085024
   55  H 15  S    0.001358   0.026504   0.067949  -0.005375  -0.080714
   56  H 16  S    0.008757   0.040205   0.014601   0.093312  -0.063524
   57  H 17  S    0.001499   0.049773   0.001790   0.086022   0.045334
   58  H 18  S    0.000807   0.055401  -0.016422   0.003985   0.117757
   59  H 19  S    0.001597   0.048258  -0.060382  -0.074624   0.007678
   60  H 20  S    0.008698   0.034039  -0.057383  -0.068560  -0.068001

                     16         17         18         19         20
                   -0.8528    -0.7758    -0.7541    -0.7087    -0.6569
                     A          A          A          A          A   
    1  C  1  S   -0.130132   0.038297  -0.006717   0.067447  -0.005559
    2  C  1  S    0.379007  -0.119068   0.025570  -0.216389   0.016783
    3  C  1  X   -0.053014  -0.042191   0.059082  -0.055984   0.009293
    4  C  1  Y   -0.018363   0.025401  -0.024285   0.052810   0.148649
    5  C  1  Z   -0.019941   0.092371  -0.039322   0.176768  -0.032462
    6  C  2  S   -0.001250  -0.060877   0.046748  -0.113921   0.006814
    7  C  2  S    0.003532   0.181717  -0.141534   0.352213  -0.024259
    8  C  2  X    0.022619  -0.015575   0.013844  -0.048432   0.070999
    9  C  2  Y   -0.158651  -0.006729   0.045620  -0.077308   0.070664
   10  C  2  Z   -0.099763   0.043413  -0.022568   0.112075  -0.103191
   11  C  3  S    0.129194   0.014830  -0.038389   0.066097  -0.002731
   12  C  3  S   -0.376311  -0.050288   0.118690  -0.212442   0.007782
   13  C  3  X    0.053874  -0.050003   0.008647  -0.024766   0.040292
   14  C  3  Y   -0.015406  -0.087904   0.084647  -0.183950  -0.032480
   15  C  3  Z   -0.001721  -0.009156  -0.036087   0.018246  -0.131174
   16  C  4  S   -0.062797   0.079643   0.045084  -0.015115   0.028327
   17  C  4  S    0.182727  -0.247587  -0.133450   0.048690  -0.097463
   18  C  4  X    0.071118   0.001406   0.010269   0.073615   0.034354
   19  C  4  Y    0.019431  -0.146402   0.122930   0.086899  -0.138884
   20  C  4  Z   -0.008229  -0.019893  -0.145304  -0.063467  -0.176452
   21  C  5  S    0.006467  -0.098101   0.054275   0.048531  -0.027107
   22  C  5  S   -0.018632   0.291437  -0.164894  -0.148970   0.082675
   23  C  5  X   -0.009442  -0.013870   0.036172   0.049868  -0.002630
   24  C  5  Y    0.080145  -0.096862  -0.087259   0.037395   0.101131
   25  C  5  Z    0.049224   0.002650  -0.139501  -0.085224  -0.119555
   26  C  6  S    0.072489   0.009500  -0.083705  -0.031688   0.033426
   27  C  6  S   -0.211205  -0.034352   0.259016   0.099287  -0.112012
   28  C  6  X   -0.069314  -0.025521   0.001417   0.073569  -0.022454
   29  C  6  Y    0.002009   0.010189  -0.066471   0.018093   0.289713
   30  C  6  Z    0.004387   0.196771   0.012161  -0.057572   0.030995
   31  C  7  S    0.055335   0.076690   0.085748  -0.021682  -0.025875
   32  C  7  S   -0.161034  -0.233632  -0.254366   0.069390   0.079225
   33  C  7  X    0.005680   0.031192  -0.074546  -0.016762  -0.064300
   34  C  7  Y    0.069329   0.133628  -0.061774  -0.086960   0.086778
   35  C  7  Z   -0.012535   0.030143   0.131708   0.067088   0.120525
   36  C  8  S   -0.038564  -0.086307  -0.005599   0.042307   0.032393
   37  C  8  S    0.111447   0.256106   0.028473  -0.127768  -0.113666
   38  C  8  X   -0.010586   0.027137  -0.047854  -0.034435  -0.100710
   39  C  8  Y    0.061712   0.106730   0.172211  -0.030335  -0.163896
   40  C  8  Z    0.044753   0.006728   0.158452   0.105248   0.107764
   41  C  9  S   -0.065259   0.002658  -0.105850  -0.054146   0.013873
   42  C  9  S    0.199464  -0.008877   0.338965   0.176496  -0.044221
   43  C  9  X   -0.003618   0.104717  -0.005156  -0.020577  -0.026369
   44  C  9  Y   -0.095632   0.014624  -0.097792  -0.065045  -0.052359
   45  C  9  Z   -0.004623  -0.183346  -0.090359   0.080102  -0.002272
   46  O 10  S    0.037838  -0.003275   0.058198   0.024422  -0.028801
   47  O 10  S   -0.157351   0.014501  -0.255813  -0.109883   0.137699
   48  O 10  X   -0.000216   0.052786  -0.010410  -0.017144  -0.000056
   49  O 10  Y   -0.039621   0.012008  -0.104427  -0.069765   0.082185
   50  O 10  Z   -0.002847  -0.091489  -0.055886   0.043397   0.017067
   51  H 11  S    0.141850  -0.057279   0.018814  -0.120707  -0.100712
   52  H 12  S    0.120696  -0.096646   0.026155  -0.177677   0.081182
   53  H 13  S    0.001056   0.092540  -0.082345   0.232617  -0.113181
   54  H 14  S   -0.117783  -0.053209   0.103422  -0.168121   0.070820
   55  H 15  S   -0.140828  -0.033678   0.046986  -0.121412  -0.095298
   56  H 16  S    0.055507  -0.135691  -0.101654  -0.001648  -0.195210
   57  H 17  S   -0.009155   0.145641  -0.103333  -0.121320  -0.072765
   58  H 18  S   -0.078004  -0.030862   0.137710   0.037898  -0.258234
   59  H 19  S   -0.065380  -0.135384  -0.160709   0.015154  -0.077881
   60  H 20  S    0.036220   0.135710  -0.013970  -0.121233  -0.192897

                     21         22         23         24         25
                   -0.6044    -0.5931    -0.5874    -0.5544    -0.5396
                     A          A          A          A          A   
    1  C  1  S    0.014347  -0.009295  -0.000330  -0.000458   0.005143
    2  C  1  S   -0.051367   0.027002  -0.003430   0.001105  -0.025364
    3  C  1  X    0.020809  -0.087329  -0.079568  -0.051859  -0.126650
    4  C  1  Y    0.265124  -0.143535   0.005968  -0.181855  -0.063011
    5  C  1  Z    0.015740  -0.040289   0.161014   0.164776   0.204412
    6  C  2  S   -0.025570   0.007268  -0.006321   0.015829  -0.008130
    7  C  2  S    0.079330  -0.020346   0.019594  -0.052391   0.026669
    8  C  2  X    0.125466  -0.112581   0.054350   0.016243   0.031124
    9  C  2  Y    0.121254  -0.072033  -0.086619  -0.141968  -0.137911
   10  C  2  Z   -0.149595   0.029780  -0.111322   0.012651  -0.123238
   11  C  3  S    0.012196  -0.010650   0.006181  -0.004926   0.001788
   12  C  3  S   -0.044393   0.034168  -0.017667   0.026085  -0.001959
   13  C  3  X    0.081797  -0.070988   0.103456   0.114120   0.122600
   14  C  3  Y   -0.135760   0.137489   0.086545   0.117579   0.140193
   15  C  3  Z   -0.236725   0.018292  -0.154847  -0.042210  -0.208512
   16  C  4  S    0.003282   0.055951   0.007920  -0.020212  -0.010097
   17  C  4  S   -0.008519  -0.189979  -0.022685   0.070439   0.034367
   18  C  4  X    0.012273   0.078257  -0.001217  -0.019223  -0.046271
   19  C  4  Y    0.006097   0.022192   0.222440  -0.177813  -0.033734
   20  C  4  Z   -0.009485  -0.128595  -0.084933  -0.208693   0.137484
   21  C  5  S   -0.011578  -0.056423   0.003916  -0.010003   0.017208
   22  C  5  S    0.041098   0.192157  -0.011996   0.028347  -0.056226
   23  C  5  X   -0.017021   0.037709   0.027560  -0.057647  -0.001777
   24  C  5  Y   -0.044231  -0.151510  -0.202415   0.197787   0.022039
   25  C  5  Z    0.113017   0.158251  -0.093951  -0.192050   0.199440
   26  C  6  S    0.009892   0.054734  -0.011219   0.001547   0.007198
   27  C  6  S   -0.032777  -0.191850   0.034569  -0.007333  -0.021435
   28  C  6  X    0.002994   0.039340  -0.028167  -0.050488   0.080455
   29  C  6  Y   -0.088127   0.022216  -0.082779   0.067476  -0.113027
   30  C  6  Z   -0.039614   0.047750   0.216422   0.046661  -0.156476
   31  C  7  S   -0.003681  -0.045459   0.009941   0.006528  -0.018368
   32  C  7  S    0.024329   0.151367  -0.052175  -0.011443   0.061760
   33  C  7  X    0.028947   0.067509   0.086971   0.053335  -0.023834
   34  C  7  Y   -0.193743  -0.052652   0.243293  -0.198997  -0.011402
   35  C  7  Z   -0.190198  -0.126463  -0.033217  -0.189933   0.110958
   36  C  8  S    0.020896   0.045760  -0.022468   0.020221  -0.004383
   37  C  8  S   -0.055362  -0.151605   0.062448  -0.058493   0.013161
   38  C  8  X    0.033992  -0.073918   0.037916   0.080374  -0.102900
   39  C  8  Y    0.166781  -0.091997  -0.189646   0.194518  -0.042107
   40  C  8  Z   -0.045435   0.137543  -0.161902  -0.115234   0.196664
   41  C  9  S   -0.042806  -0.080185   0.012341   0.009093   0.022759
   42  C  9  S    0.146934   0.279856  -0.039793  -0.029269  -0.077331
   43  C  9  X    0.000728  -0.013161  -0.184663  -0.058067   0.036586
   44  C  9  Y    0.067557   0.026269  -0.010547  -0.009600  -0.092781
   45  C  9  Z   -0.016058   0.036069   0.254698  -0.038372  -0.233944
   46  O 10  S    0.041037   0.049816  -0.005352  -0.009102  -0.034293
   47  O 10  S   -0.202003  -0.245453   0.026144   0.046543   0.178356
   48  O 10  X   -0.019926  -0.054298  -0.160223  -0.006872   0.087252
   49  O 10  Y   -0.164404  -0.234182   0.012190   0.065275   0.230156
   50  O 10  Z   -0.061870  -0.004084   0.249708  -0.074768  -0.175591
   51  H 11  S   -0.228604   0.143346  -0.000778   0.148336   0.056415
   52  H 12  S    0.071980  -0.018395  -0.130195  -0.198083  -0.208062
   53  H 13  S   -0.140119   0.081044  -0.039073   0.035060  -0.012444
   54  H 14  S    0.077711   0.066922   0.151178   0.117937   0.235389
   55  H 15  S   -0.238585   0.098258  -0.109504  -0.022780  -0.131330
   56  H 16  S   -0.019351  -0.176617   0.001109  -0.190816   0.112336
   57  H 17  S    0.107550   0.259225   0.024433  -0.208425   0.101308
   58  H 18  S    0.051618  -0.096137   0.063772  -0.063451   0.112452
   59  H 19  S    0.212432   0.194938  -0.074827   0.223261  -0.051572
   60  H 20  S    0.075962  -0.217881   0.049151   0.160321  -0.169707

                     26         27         28         29         30
                   -0.5170    -0.5079    -0.4880    -0.4776    -0.4470
                     A          A          A          A          A   
    1  C  1  S    0.009321  -0.009038   0.008097  -0.029637   0.009781
    2  C  1  S   -0.036835   0.019967  -0.031962   0.103541  -0.036557
    3  C  1  X   -0.037065  -0.210325   0.012289  -0.065093  -0.013555
    4  C  1  Y   -0.076888   0.094289   0.239672   0.194375  -0.171018
    5  C  1  Z   -0.202099   0.009637  -0.121210   0.197142  -0.139657
    6  C  2  S   -0.013598  -0.015963  -0.008846   0.005976  -0.003195
    7  C  2  S    0.048230   0.057050   0.037339  -0.026263   0.011732
    8  C  2  X   -0.114431  -0.097736  -0.174728   0.192699  -0.051402
    9  C  2  Y    0.183059  -0.079900  -0.250361  -0.076562   0.180254
   10  C  2  Z    0.032987  -0.212631   0.052730  -0.208317   0.091782
   11  C  3  S   -0.009418   0.000528   0.032607  -0.001519  -0.005690
   12  C  3  S    0.023560  -0.009689  -0.113518   0.009980   0.018338
   13  C  3  X   -0.113207  -0.144400   0.025725  -0.051639   0.021107
   14  C  3  Y   -0.110662   0.207668   0.251656   0.037591  -0.175025
   15  C  3  Z   -0.127689  -0.083815   0.040775   0.301941  -0.126236
   16  C  4  S   -0.009656   0.008684   0.001915   0.001190   0.000428
   17  C  4  S    0.027115  -0.042887  -0.006925   0.002794   0.006553
   18  C  4  X    0.218947   0.178669   0.001635  -0.013776  -0.071200
   19  C  4  Y   -0.063086   0.013385   0.129098   0.085897   0.270281
   20  C  4  Z   -0.166043   0.169576  -0.052160  -0.054843   0.148819
   21  C  5  S   -0.010413  -0.020067  -0.006981   0.006902  -0.001644
   22  C  5  S    0.038525   0.070437   0.027095  -0.024169   0.005120
   23  C  5  X    0.119527   0.207735   0.032187  -0.011655   0.074666
   24  C  5  Y    0.103907   0.057487  -0.114965  -0.100680  -0.262567
   25  C  5  Z    0.074326  -0.111081   0.027379  -0.065775  -0.235121
   26  C  6  S    0.019110  -0.011949  -0.005473   0.010886  -0.004893
   27  C  6  S   -0.074954   0.033716   0.016977  -0.042293   0.006414
   28  C  6  X    0.122863   0.223202   0.031079  -0.055378   0.025123
   29  C  6  Y   -0.229951   0.155812   0.098456  -0.077887   0.189971
   30  C  6  Z   -0.012902   0.052500  -0.028035   0.148286   0.279550
   31  C  7  S    0.021616  -0.001876   0.011261   0.004073  -0.002234
   32  C  7  S   -0.078976   0.013335  -0.026636  -0.016027   0.015127
   33  C  7  X    0.112420   0.095484  -0.122701   0.131449   0.072899
   34  C  7  Y   -0.018117  -0.113801  -0.135762  -0.025724  -0.082000
   35  C  7  Z   -0.055939   0.145190  -0.020165  -0.164224  -0.103182
   36  C  8  S   -0.009485   0.005612  -0.001264   0.004309   0.011397
   37  C  8  S    0.035753  -0.014555   0.016035  -0.015934  -0.039805
   38  C  8  X    0.073438   0.201994  -0.066635   0.003960  -0.018421
   39  C  8  Y    0.007018   0.064751   0.181887  -0.001318   0.078613
   40  C  8  Z    0.041340  -0.014478  -0.052336   0.158376   0.097308
   41  C  9  S    0.007872   0.011115   0.009334  -0.015194   0.000791
   42  C  9  S   -0.020159  -0.045289  -0.028127   0.061104  -0.000911
   43  C  9  X    0.040030   0.237109  -0.208158   0.099886  -0.002762
   44  C  9  Y   -0.298405   0.069299  -0.145569  -0.218857  -0.087827
   45  C  9  Z    0.114586   0.111819  -0.065788  -0.037891  -0.141204
   46  O 10  S   -0.051714   0.017241  -0.031205  -0.026255  -0.013449
   47  O 10  S    0.276063  -0.093035   0.171628   0.146723   0.078019
   48  O 10  X    0.098492   0.165078  -0.137093   0.167461   0.075279
   49  O 10  Y    0.316020  -0.149887   0.292736   0.209206   0.185014
   50  O 10  Z    0.203867   0.049492   0.028462   0.000268  -0.180136
   51  H 11  S    0.085351  -0.033270  -0.240234  -0.138381   0.170245
   52  H 12  S    0.096881  -0.005527   0.214779  -0.053719   0.021216
   53  H 13  S    0.009439  -0.031973   0.264779  -0.215088   0.003388
   54  H 14  S    0.014251   0.118834   0.095280  -0.227911   0.010472
   55  H 15  S   -0.082231   0.092478   0.073574   0.275928  -0.179031
   56  H 16  S   -0.163388   0.119208   0.008737  -0.003917   0.260570
   57  H 17  S    0.005216  -0.104261   0.100157  -0.008317  -0.046502
   58  H 18  S    0.201884  -0.092711  -0.084740   0.027380  -0.202996
   59  H 19  S    0.044975  -0.033376   0.029203   0.181759   0.168517
   60  H 20  S    0.026960   0.118654   0.113293  -0.116706  -0.056109

                     31         32         33         34         35
                   -0.4434    -0.4185    -0.3647    -0.3155    -0.2824
                     A          A          A          A          A   
    1  C  1  S   -0.008529   0.002736  -0.002590   0.000070  -0.027061
    2  C  1  S    0.036444   0.004711  -0.005943  -0.000918   0.128624
    3  C  1  X    0.013152   0.267823  -0.102532   0.002143   0.333150
    4  C  1  Y   -0.140175   0.006536   0.047286   0.011788   0.013415
    5  C  1  Z    0.162368   0.025138  -0.156153  -0.034044   0.125212
    6  C  2  S    0.003256   0.020123   0.012903   0.004043   0.006614
    7  C  2  S   -0.017013  -0.071304  -0.049086  -0.013478  -0.027391
    8  C  2  X    0.144180   0.011850   0.076852  -0.016830   0.060266
    9  C  2  Y    0.102240  -0.117055  -0.097560  -0.012826   0.026646
   10  C  2  Z   -0.034142   0.208866   0.084675   0.011263   0.102669
   11  C  3  S   -0.016421  -0.003709  -0.013772   0.002325   0.012557
   12  C  3  S    0.058397   0.014473   0.076278  -0.010721  -0.070021
   13  C  3  X   -0.022952   0.130835   0.348609   0.007876  -0.205570
   14  C  3  Y   -0.126252   0.111234  -0.061937   0.019128   0.060706
   15  C  3  Z    0.041395  -0.111577   0.128524  -0.025339  -0.086865
   16  C  4  S    0.025355   0.008800  -0.017283   0.030994   0.008916
   17  C  4  S   -0.092518  -0.029841   0.092268  -0.141375  -0.051198
   18  C  4  X    0.010011  -0.026014  -0.312145  -0.150622   0.265610
   19  C  4  Y    0.136842   0.045744   0.016580  -0.197365   0.047832
   20  C  4  Z   -0.046870   0.009581  -0.174875   0.225539   0.051356
   21  C  5  S    0.005242   0.016580   0.012160  -0.006351   0.003718
   22  C  5  S   -0.011112  -0.061865  -0.043261   0.019897  -0.011213
   23  C  5  X   -0.001603  -0.145470  -0.048810  -0.117159   0.017153
   24  C  5  Y   -0.141761  -0.077439  -0.074041   0.068638   0.049832
   25  C  5  Z    0.184954   0.008794   0.040461  -0.075810   0.059673
   26  C  6  S   -0.003086  -0.007897   0.018742   0.001577  -0.005785
   27  C  6  S    0.022568   0.042344  -0.082599  -0.009821   0.047579
   28  C  6  X    0.012134  -0.262938   0.253808  -0.028037  -0.246420
   29  C  6  Y    0.241701   0.032067  -0.004357  -0.022917   0.017864
   30  C  6  Z   -0.239950  -0.019643  -0.021998   0.091039  -0.057390
   31  C  7  S   -0.011241   0.004110  -0.010049   0.011981   0.005121
   32  C  7  S    0.058251  -0.013309   0.039797  -0.043415  -0.020647
   33  C  7  X   -0.136256  -0.007816   0.320949   0.158695   0.353328
   34  C  7  Y   -0.235638   0.015075  -0.086318  -0.079389  -0.027809
   35  C  7  Z    0.192963  -0.056171   0.247083  -0.014785   0.116020
   36  C  8  S   -0.004211  -0.000251   0.005904  -0.036783   0.007049
   37  C  8  S    0.033602   0.000526  -0.024580   0.164183  -0.034032
   38  C  8  X    0.072870   0.082016   0.347196   0.023201   0.392644
   39  C  8  Y    0.199408  -0.020306  -0.074070   0.098220  -0.108336
   40  C  8  Z   -0.024663   0.068202   0.101756   0.316847   0.137229
   41  C  9  S   -0.003416  -0.002244   0.008101  -0.000925  -0.008859
   42  C  9  S    0.014514   0.011812  -0.029901   0.001876   0.037475
   43  C  9  X   -0.026791   0.381483  -0.002375   0.044587  -0.161042
   44  C  9  Y   -0.125086  -0.114841   0.035594   0.024358  -0.007375
   45  C  9  Z    0.120244   0.165970   0.023562  -0.189813  -0.023147
   46  O 10  S   -0.011982  -0.002952   0.001019   0.000346   0.000145
   47  O 10  S    0.070127   0.017815  -0.008534  -0.001784   0.001872
   48  O 10  X   -0.058143   0.440914   0.040170  -0.420177  -0.277700
   49  O 10  Y    0.109801  -0.052381  -0.022469  -0.044955   0.112977
   50  O 10  Z    0.306712   0.204723  -0.091482   0.651403  -0.294505
   51  H 11  S    0.138091  -0.084674  -0.003640  -0.013362  -0.075771
   52  H 12  S   -0.194792   0.047794   0.132760   0.032527  -0.025244
   53  H 13  S   -0.164224   0.189553   0.063694   0.023040   0.028270
   54  H 14  S   -0.094670   0.175713  -0.049621   0.048359   0.062107
   55  H 15  S    0.016361  -0.094122  -0.079818  -0.020296   0.044746
   56  H 16  S   -0.032477   0.015269  -0.118626   0.109613   0.033543
   57  H 17  S    0.242387   0.044823   0.078796  -0.112472   0.018972
   58  H 18  S   -0.221784  -0.075097   0.019704   0.008982  -0.083350
   59  H 19  S   -0.069761   0.032960  -0.066819   0.115215   0.004245
   60  H 20  S    0.189551  -0.025374   0.040858  -0.120354   0.004808

                     36         37         38         39         40
                   -0.2114     0.1941     0.2213     0.3783     0.3917
                     A          A          A          A          A   
    1  C  1  S   -0.028071  -0.011021  -0.038347   0.030050  -0.039686
    2  C  1  S    0.104050   0.079962   0.188930  -0.130681   0.202063
    3  C  1  X    0.191394   0.230072   0.294887  -0.318804   0.411429
    4  C  1  Y    0.008619  -0.034281   0.002739   0.021541  -0.029797
    5  C  1  Z    0.091301   0.047591   0.104344  -0.239046   0.122296
    6  C  2  S    0.024990  -0.022921  -0.003037  -0.002491  -0.005650
    7  C  2  S   -0.120325   0.127060   0.017365   0.018535   0.043499
    8  C  2  X    0.447470  -0.478452  -0.073890  -0.093201  -0.215857
    9  C  2  Y   -0.138164   0.110357   0.059918   0.006786   0.055868
   10  C  2  Z    0.314482  -0.299674  -0.014950  -0.066286  -0.137621
   11  C  3  S   -0.030845  -0.017660   0.032975  -0.051024  -0.009017
   12  C  3  S    0.117068   0.112566  -0.154935   0.244545   0.059478
   13  C  3  X    0.230310   0.269984  -0.214836   0.525398   0.076699
   14  C  3  Y   -0.050879   0.012592   0.040623  -0.113209   0.081195
   15  C  3  Z    0.079256   0.102459  -0.059384   0.234248  -0.012715
   16  C  4  S    0.033838  -0.014872  -0.015675   0.053218  -0.023156
   17  C  4  S   -0.134203   0.094771   0.061121  -0.256084   0.133943
   18  C  4  X    0.199031  -0.254779  -0.150003   0.528152  -0.112775
   19  C  4  Y   -0.007561   0.053989   0.000541   0.022345  -0.040556
   20  C  4  Z    0.105377  -0.083721  -0.055017   0.175285  -0.008363
   21  C  5  S   -0.024937  -0.022703  -0.002372   0.007296   0.020409
   22  C  5  S    0.119013   0.126017   0.011737  -0.040694  -0.112340
   23  C  5  X    0.560144   0.621311   0.052733  -0.051062  -0.103973
   24  C  5  Y    0.067621   0.043826   0.055306   0.039687  -0.065800
   25  C  5  Z    0.030766   0.076708   0.045595   0.049809  -0.006855
   26  C  6  S    0.030969  -0.016830   0.010645  -0.056183   0.020805
   27  C  6  S   -0.123051   0.102656  -0.029614   0.287186  -0.087690
   28  C  6  X    0.240332  -0.267148   0.111021  -0.477098   0.307290
   29  C  6  Y   -0.026582  -0.007267  -0.006565   0.013982  -0.027050
   30  C  6  Z    0.063184  -0.122185   0.015136  -0.070767   0.083154
   31  C  7  S    0.009330   0.017695   0.004959   0.000454  -0.000819
   32  C  7  S   -0.038579  -0.084937  -0.022757  -0.003596   0.006990
   33  C  7  X   -0.035362  -0.060137   0.504666   0.412465   0.285487
   34  C  7  Y    0.035005   0.083383  -0.075466  -0.076749  -0.059280
   35  C  7  Z   -0.066549  -0.121508   0.197635   0.177287   0.118368
   36  C  8  S   -0.004575  -0.008417  -0.001050  -0.002263  -0.002053
   37  C  8  S    0.020416   0.037499   0.004846   0.013275   0.011603
   38  C  8  X   -0.140394   0.169463  -0.341947  -0.313144  -0.477357
   39  C  8  Y    0.036837  -0.029914   0.066506   0.061597   0.098990
   40  C  8  Z   -0.029694   0.103564  -0.166951  -0.156336  -0.229920
   41  C  9  S    0.009395   0.019908  -0.001428  -0.001270   0.000226
   42  C  9  S   -0.040018  -0.095807   0.005352   0.009842  -0.000482
   43  C  9  X    0.032484   0.038110  -0.420585  -0.011526   0.572960
   44  C  9  Y    0.033898   0.064038   0.085795   0.013531  -0.125757
   45  C  9  Z   -0.053117  -0.105943  -0.202806  -0.008669   0.272331
   46  O 10  S   -0.000156  -0.002396  -0.000376   0.001607  -0.000479
   47  O 10  S   -0.001115   0.010688   0.002612  -0.010830   0.002596
   48  O 10  X   -0.058561  -0.011786   0.486319   0.014150  -0.409834
   49  O 10  Y   -0.016877  -0.036425  -0.109346   0.014662   0.086642
   50  O 10  Z    0.067776   0.067570   0.230475   0.005993  -0.192440
   51  H 11  S   -0.002716  -0.057131  -0.044869  -0.017261  -0.035028
   52  H 12  S    0.077213  -0.150080  -0.029008  -0.083535  -0.045250
   53  H 13  S    0.052562  -0.020217  -0.000700  -0.000275   0.013979
   54  H 14  S    0.070315  -0.142189  -0.009647   0.020713  -0.080094
   55  H 15  S   -0.001634  -0.074842   0.024991  -0.009838  -0.038231
   56  H 16  S    0.008067  -0.066689   0.021701  -0.007586  -0.093441
   57  H 17  S   -0.063386  -0.024059  -0.002788   0.003053   0.033374
   58  H 18  S    0.000870  -0.072426  -0.058879  -0.073150  -0.076664
   59  H 19  S    0.024635   0.034379   0.000897   0.003157  -0.017889
   60  H 20  S   -0.025954  -0.047881  -0.013342  -0.017691  -0.011156

                     41         42         43         44         45
                    0.5297     0.5709     0.5867     0.6195     0.6258
                     A          A          A          A          A   
    1  C  1  S   -0.013685  -0.023579  -0.000827  -0.006218   0.036301
    2  C  1  S    0.054085   0.152648   0.004513   0.041932  -0.227779
    3  C  1  X    0.480328  -0.125662  -0.051896  -0.022257   0.094022
    4  C  1  Y   -0.042900  -0.222989  -0.143653   0.081606   0.343167
    5  C  1  Z    0.141782   0.078477   0.154394  -0.037964  -0.176633
    6  C  2  S   -0.034026  -0.020578  -0.011698   0.002610   0.045138
    7  C  2  S    0.212429   0.127719   0.073522  -0.018769  -0.285737
    8  C  2  X   -0.275700  -0.125842  -0.098040  -0.031797   0.294177
    9  C  2  Y    0.105571  -0.130620  -0.082240   0.026596   0.237759
   10  C  2  Z   -0.219065   0.176702   0.117408   0.017179  -0.317741
   11  C  3  S   -0.014428  -0.012464  -0.023730   0.027328   0.030298
   12  C  3  S    0.057831   0.081365   0.152128  -0.170214  -0.189577
   13  C  3  X    0.480253  -0.146042  -0.112209   0.003215   0.147493
   14  C  3  Y   -0.003443  -0.052781   0.038541  -0.105123   0.047602
   15  C  3  Z    0.188150   0.248041   0.107751   0.115372  -0.382111
   16  C  4  S    0.046066   0.000962  -0.048446   0.106434  -0.009742
   17  C  4  S   -0.242551   0.016803   0.294655  -0.623154   0.071236
   18  C  4  X    0.466876  -0.161119   0.016480  -0.374952  -0.129929
   19  C  4  Y   -0.117044  -0.124192   0.134828  -0.354319  -0.033975
   20  C  4  Z    0.217793   0.383985   0.115366   0.260272   0.216082
   21  C  5  S    0.010922  -0.045110  -0.018491   0.004069  -0.051718
   22  C  5  S   -0.081767   0.282153   0.118657  -0.028326   0.325446
   23  C  5  X   -0.376683  -0.010897   0.034576   0.117754   0.024826
   24  C  5  Y   -0.038133  -0.207040  -0.072343   0.090416  -0.200070
   25  C  5  Z    0.000809   0.257535   0.167986   0.133157   0.256498
   26  C  6  S    0.042591  -0.052115   0.066791  -0.013309   0.007586
   27  C  6  S   -0.223921   0.328867  -0.386612   0.074661  -0.030704
   28  C  6  X    0.461437   0.057311  -0.258219  -0.047913  -0.127125
   29  C  6  Y   -0.012165  -0.341776  -0.208688   0.231532  -0.291894
   30  C  6  Z    0.259312   0.016096   0.366568   0.020826   0.137142
   31  C  7  S   -0.018247  -0.050761  -0.024429   0.054542  -0.052278
   32  C  7  S    0.104977   0.307962   0.132446  -0.363013   0.313282
   33  C  7  X   -0.289006   0.026790  -0.222163  -0.014006  -0.062858
   34  C  7  Y    0.008714  -0.170762  -0.115868   0.193615  -0.184883
   35  C  7  Z   -0.045053  -0.219448   0.555906   0.190189   0.066460
   36  C  8  S    0.015542   0.013110  -0.024467   0.107485   0.001513
   37  C  8  S   -0.090984  -0.055274   0.126810  -0.662295  -0.003353
   38  C  8  X    0.221231   0.120328  -0.257232  -0.127220  -0.043558
   39  C  8  Y   -0.058590  -0.057774   0.092930  -0.383282   0.000229
   40  C  8  Z    0.125386  -0.220106   0.526540   0.016621   0.074180
   41  C  9  S   -0.020631  -0.091767   0.093773  -0.123883  -0.019447
   42  C  9  S    0.118754   0.540238  -0.553769   0.727487   0.112218
   43  C  9  X   -0.306208  -0.060329  -0.121974  -0.098612  -0.085221
   44  C  9  Y    0.014654  -0.127353   0.155400  -0.414404  -0.033493
   45  C  9  Z   -0.054944   0.056022   0.324803   0.188748   0.151194
   46  O 10  S    0.003508   0.018709  -0.014194   0.006531   0.003866
   47  O 10  S   -0.021115  -0.116923   0.084857  -0.025370  -0.025106
   48  O 10  X    0.158614   0.042339   0.029515   0.012610   0.027996
   49  O 10  Y    0.001898   0.168473  -0.114267   0.055498   0.040508
   50  O 10  Z    0.046405   0.004961  -0.110280  -0.077197  -0.040903
   51  H 11  S    0.075162  -0.318510  -0.158405   0.045142   0.459520
   52  H 12  S    0.000289   0.133342   0.222882  -0.089656  -0.241508
   53  H 13  S   -0.044191  -0.348206  -0.224867  -0.009035   0.658617
   54  H 14  S   -0.008965   0.229080   0.026050   0.225699  -0.287361
   55  H 15  S    0.070606  -0.286681  -0.231540   0.030411   0.443436
   56  H 16  S    0.005810  -0.319518  -0.335873   0.217499  -0.236574
   57  H 17  S   -0.040923  -0.514850  -0.258480  -0.047065  -0.511015
   58  H 18  S    0.030627  -0.527770   0.085603   0.194818  -0.235317
   59  H 19  S   -0.012116  -0.461593   0.418007   0.427576  -0.171405
   60  H 20  S    0.089799  -0.137249   0.388847   0.657636   0.088577

                     46         47         48         49         50
                    0.6607     0.6978     0.7140     0.7291     0.7432
                     A          A          A          A          A   
    1  C  1  S    0.026945  -0.102917  -0.055755   0.120612  -0.070456
    2  C  1  S   -0.166503   0.655513   0.347173  -0.770513   0.444892
    3  C  1  X   -0.002201  -0.099509  -0.089399  -0.006747   0.055330
    4  C  1  Y   -0.272689  -0.340026   0.256764  -0.402677  -0.170307
    5  C  1  Z    0.125796  -0.306101   0.019568   0.365847  -0.311846
    6  C  2  S   -0.008946   0.053934   0.077838  -0.012938  -0.012336
    7  C  2  S    0.052268  -0.328247  -0.483389   0.080894   0.104565
    8  C  2  X   -0.037929   0.071966   0.000189   0.050130   0.051426
    9  C  2  Y   -0.141532  -0.100501   0.095442  -0.284233  -0.051079
   10  C  2  Z   -0.056283  -0.085297   0.032897  -0.178625   0.036274
   11  C  3  S    0.002533  -0.062548  -0.127671  -0.091718  -0.073014
   12  C  3  S   -0.018377   0.388012   0.815556   0.589581   0.460698
   13  C  3  X    0.080666   0.012097  -0.232757   0.087625   0.019004
   14  C  3  Y   -0.136205  -0.044194   0.359535   0.143274   0.309497
   15  C  3  Z   -0.203615  -0.302076   0.112430  -0.514010  -0.098660
   16  C  4  S    0.017248  -0.015887  -0.057344   0.025088   0.126599
   17  C  4  S   -0.116725   0.100106   0.372654  -0.139654  -0.789388
   18  C  4  X    0.099814   0.122082   0.134624  -0.054844  -0.106906
   19  C  4  Y   -0.307456  -0.206204   0.003647   0.071208   0.159644
   20  C  4  Z   -0.468175  -0.054540   0.148490   0.223397  -0.102497
   21  C  5  S    0.005892   0.044716   0.067035  -0.000206  -0.145020
   22  C  5  S   -0.043451  -0.279449  -0.433154   0.004313   0.923192
   23  C  5  X    0.127791  -0.048617   0.034942  -0.023149  -0.143954
   24  C  5  Y   -0.210163  -0.112104   0.010322   0.132455   0.066084
   25  C  5  Z   -0.211908   0.010096   0.024320   0.146857  -0.068391
   26  C  6  S    0.070795  -0.090742   0.009033  -0.044805   0.116249
   27  C  6  S   -0.419079   0.573791  -0.049755   0.262603  -0.728801
   28  C  6  X   -0.226364   0.274594  -0.063225  -0.002812  -0.061558
   29  C  6  Y   -0.409266  -0.295413   0.121530   0.222095   0.164766
   30  C  6  Z    0.103503  -0.101995   0.294508  -0.038850  -0.214883
   31  C  7  S   -0.111359   0.088457  -0.075182   0.042349  -0.027513
   32  C  7  S    0.683051  -0.576758   0.474977  -0.257651   0.168378
   33  C  7  X   -0.019220  -0.106007  -0.009220   0.099573  -0.002153
   34  C  7  Y   -0.262845   0.103876   0.092613   0.147949  -0.175254
   35  C  7  Z    0.077863   0.011940  -0.022053   0.006609  -0.043161
   36  C  8  S    0.091515  -0.030925   0.108518   0.006114  -0.032942
   37  C  8  S   -0.552502   0.181283  -0.696698  -0.043554   0.221013
   38  C  8  X   -0.068726  -0.045744   0.035947   0.032634  -0.013770
   39  C  8  Y   -0.161344  -0.201687  -0.049462  -0.007693   0.079618
   40  C  8  Z    0.001124   0.144627  -0.058064  -0.120337   0.001288
   41  C  9  S    0.002528   0.035217  -0.037000  -0.046870  -0.023023
   42  C  9  S   -0.027644  -0.224673   0.220157   0.283432   0.136775
   43  C  9  X    0.120007  -0.115471   0.100116  -0.061001  -0.114831
   44  C  9  Y   -0.167803  -0.093011  -0.018132  -0.030895  -0.009204
   45  C  9  Z   -0.290944   0.020038  -0.419899  -0.000364   0.262421
   46  O 10  S   -0.017169  -0.021039   0.005273   0.010533   0.008715
   47  O 10  S    0.122554   0.143921  -0.033220  -0.070527  -0.059242
   48  O 10  X   -0.074466   0.008258  -0.023850   0.027000   0.041012
[...]
   29  C  6  Y    0.081528  -0.663478   0.114348  -0.057507   0.060329
   30  C  6  Z   -0.605665  -0.139048  -0.063789   0.219958   0.026050
   31  C  7  S    0.038523  -0.073000  -0.014189  -0.006816  -0.016219
   32  C  7  S   -0.219119   0.429953   0.096365   0.030849   0.128925
   33  C  7  X    0.192134  -0.147881   0.145025  -0.042294   0.028530
   34  C  7  Y    0.078208  -0.283231   0.016504  -0.018478  -0.090743
   35  C  7  Z   -0.371091   0.009019  -0.469693   0.106319  -0.163970
   36  C  8  S   -0.023717  -0.029771   0.041865   0.021965  -0.117023
   37  C  8  S    0.148954   0.194480  -0.227209  -0.136083   0.721219
   38  C  8  X    0.063959   0.023799   0.168094  -0.051982   0.171327
   39  C  8  Y   -0.013361   0.028442  -0.090440  -0.066084   0.384385
   40  C  8  Z   -0.272097   0.062954  -0.527413   0.070696   0.010769
   41  C  9  S    0.004502   0.032621  -0.152549  -0.053567   0.091773
   42  C  9  S   -0.027024  -0.191919   0.904021   0.316825  -0.533838
   43  C  9  X    0.052733  -0.040506  -0.035929  -0.068916  -0.084404
   44  C  9  Y    0.042656   0.090568  -0.236230  -0.119876   0.390389
   45  C  9  Z   -0.297607   0.010682  -0.121910   0.227342   0.003070
   46  O 10  S   -0.001038  -0.002825   0.027349   0.009221   0.003874
   47  O 10  S    0.006424   0.014228  -0.168657  -0.056841  -0.042417
   48  O 10  X   -0.015863   0.021490   0.022990   0.024281   0.045246
   49  O 10  Y   -0.020688  -0.022893   0.238548   0.090493   0.045577
   50  O 10  Z    0.091609  -0.001497   0.059969  -0.062987   0.024636
   51  H 11  S    0.171919  -0.468740  -0.027591   0.263805   0.260575
   52  H 12  S   -0.353537   0.180805  -0.034539  -0.112055  -0.095074
   53  H 13  S    0.187153  -0.294781  -0.154056   0.545608   0.214492
   54  H 14  S   -0.208866  -0.063844   0.149567  -0.401457   0.047855
   55  H 15  S    0.243442  -0.001366  -0.167573   0.511689   0.007014
   56  H 16  S    0.361568  -0.069408  -0.093517  -0.287889  -0.654999
   57  H 17  S    0.253724  -0.383331  -0.321656  -0.442341  -0.132229
   58  H 18  S    0.005271  -0.545523  -0.231488  -0.127450   0.035529
   59  H 19  S   -0.228679  -0.353094  -0.497749   0.082579  -0.220822
   60  H 20  S   -0.339833  -0.075765  -0.274593   0.197767  -0.674215

                     46         47         48         49         50
                    0.6626     0.6796     0.6804     0.7039     0.7279
                     A          A          A          A          A   
    1  C  1  S   -0.046446   0.073219  -0.055016   0.067434   0.124296
    2  C  1  S    0.249240  -0.428296   0.330402  -0.409341  -0.780595
    3  C  1  X    0.257194  -0.793734   0.030941   0.099259   0.384510
    4  C  1  Y    0.363274   0.114857   0.443535  -0.084044   0.023795
    5  C  1  Z    0.384403  -0.164246  -0.212725   0.027397   0.066922
    6  C  2  S    0.092477   0.044399  -0.000432  -0.086085  -0.097386
    7  C  2  S   -0.578354  -0.279472   0.019834   0.506045   0.629454
    8  C  2  X   -0.150878   0.139938  -0.160851  -0.013310  -0.007131
    9  C  2  Y    0.218481   0.167578   0.119406   0.031826  -0.324477
   10  C  2  Z   -0.160143   0.093378   0.126479  -0.003159   0.006829
   11  C  3  S    0.002676  -0.008582   0.043679   0.197534  -0.041285
   12  C  3  S   -0.032212   0.045638  -0.285773  -1.267630   0.288741
   13  C  3  X    0.119044  -0.062196  -0.170114   0.073414  -0.014725
   14  C  3  Y   -0.101523  -0.048171  -0.014241  -0.428409   0.289413
   15  C  3  Z    0.011132  -0.063437   0.250936   0.085268  -0.033793
   16  C  4  S   -0.000029   0.011715   0.066520  -0.011980   0.002665
   17  C  4  S    0.002669  -0.070449  -0.398245   0.072590  -0.013336
   18  C  4  X   -0.003038  -0.169943   0.045180  -0.025761  -0.002638
   19  C  4  Y   -0.103315  -0.068974   0.063878   0.003199   0.118640
   20  C  4  Z   -0.229094  -0.163879   0.109756  -0.014958   0.087910
   21  C  5  S   -0.000660   0.004688  -0.155563   0.026480  -0.033700
   22  C  5  S   -0.021095  -0.044389   0.974948  -0.164924   0.224675
   23  C  5  X   -0.092846   0.229962  -0.121018   0.060109   0.084590
   24  C  5  Y   -0.063388  -0.095971  -0.260744   0.040559  -0.050911
   25  C  5  Z   -0.152896  -0.093282  -0.042943   0.001184   0.018786
   26  C  6  S    0.113983  -0.040110   0.104675  -0.009666   0.091218
   27  C  6  S   -0.661538   0.222510  -0.619828   0.052649  -0.577228
   28  C  6  X    0.186377  -0.918798  -0.021859  -0.108545  -0.329380
   29  C  6  Y   -0.298074  -0.119268  -0.061992   0.052417   0.398772
   30  C  6  Z    0.251531  -0.073046  -0.370203   0.084537   0.066829
   31  C  7  S   -0.137871  -0.053002   0.015477  -0.015525  -0.065381
   32  C  7  S    0.861826   0.320676  -0.113557   0.105188   0.428730
   33  C  7  X   -0.161096   0.139107  -0.022717   0.032170   0.088057
   34  C  7  Y   -0.246282  -0.176818  -0.087949  -0.005945  -0.052303
   35  C  7  Z   -0.102464   0.093447   0.090697   0.000298   0.003927
   36  C  8  S    0.063707   0.041808  -0.018390   0.011471   0.031311
   37  C  8  S   -0.375084  -0.253817   0.116196  -0.067720  -0.196985
   38  C  8  X    0.095577  -0.150109  -0.117800   0.026199   0.039318
   39  C  8  Y    0.015272  -0.043510  -0.090202   0.036380   0.146007
   40  C  8  Z   -0.091218  -0.000229   0.194203  -0.049549  -0.083760
   41  C  9  S   -0.014964  -0.004672  -0.002729  -0.003938  -0.028996
   42  C  9  S    0.085261   0.023069   0.013947   0.028608   0.180969
   43  C  9  X    0.029814   0.126324  -0.049469   0.034104   0.011829
   44  C  9  Y   -0.038190  -0.058497  -0.046704   0.030046   0.084076
   45  C  9  Z   -0.259536  -0.077621   0.285591  -0.061796  -0.070892
   46  O 10  S   -0.001166  -0.004007   0.000278   0.003381   0.015634
   47  O 10  S    0.010757   0.029968  -0.000876  -0.023190  -0.107690
   48  O 10  X   -0.008129  -0.054467   0.014879  -0.010700  -0.003697
   49  O 10  Y   -0.023667  -0.040857   0.010070   0.025103   0.128306
   50  O 10  Z    0.077977   0.014152  -0.090192   0.023355   0.040319
   51  H 11  S    0.206991   0.128100   0.294790   0.135225   0.415253
   52  H 12  S    0.159416  -0.063267  -0.478041   0.218957   0.452176
   53  H 13  S    0.445295   0.202097  -0.109475  -0.279493  -0.450021
   54  H 14  S    0.009456  -0.023790   0.406398   0.854052  -0.298245
   55  H 15  S    0.112221  -0.006036  -0.107055   0.816740  -0.238291
   56  H 16  S    0.250866   0.222525   0.100432  -0.025844  -0.101750
   57  H 17  S    0.045400   0.049363  -0.639137   0.114153  -0.143657
   58  H 18  S    0.004154   0.127539   0.233127   0.047686   0.671360
   59  H 19  S   -0.617929  -0.181284   0.099457  -0.064397  -0.258460
   60  H 20  S    0.107436   0.219782   0.171547  -0.028416  -0.042910

                     51         52         53         54         55
                    0.7444     0.7805     0.7849     0.8861     0.8953
                     A          A          A          A          A   
    1  C  1  S   -0.062301   0.129240  -0.020900   0.012678  -0.022778
    2  C  1  S    0.407837  -0.832215   0.122862  -0.085769   0.147490
    3  C  1  X    0.081396   0.109428  -0.147223  -0.012189  -0.008668
    4  C  1  Y    0.049137   0.521948  -0.262850  -0.016545  -0.075822
    5  C  1  Z   -0.621989   0.195940   0.467087   0.128960   0.042896
    6  C  2  S   -0.058705  -0.025480   0.071519   0.016497  -0.004248
    7  C  2  S    0.392053   0.169373  -0.480584  -0.117780   0.028253
    8  C  2  X    0.032018  -0.032966  -0.024638   0.029172  -0.112213
    9  C  2  Y   -0.025296  -0.041314   0.031774  -0.025998  -0.055632
   10  C  2  Z    0.082149  -0.008315  -0.038307  -0.049783   0.168507
   11  C  3  S    0.013239  -0.009110  -0.009392  -0.007345   0.000621
   12  C  3  S   -0.085133   0.064103   0.061326   0.052743  -0.000397
   13  C  3  X   -0.144523  -0.109787   0.148781  -0.024003   0.167448
   14  C  3  Y    0.164325   0.146010  -0.250343  -0.065734  -0.047725
   15  C  3  Z    0.067967   0.126695  -0.073055   0.069522  -0.203014
   16  C  4  S   -0.115597  -0.053684  -0.064057   0.003485  -0.032767
   17  C  4  S    0.752846   0.359828   0.432940  -0.029249   0.235149
   18  C  4  X    0.016037  -0.024849   0.069489   0.027882  -0.087549
   19  C  4  Y    0.107457  -0.019472   0.344315   0.038021  -0.109365
   20  C  4  Z    0.074588  -0.082318   0.100066   0.688808  -0.099018
   21  C  5  S    0.060203   0.017652  -0.072150   0.005891   0.022306
   22  C  5  S   -0.381036  -0.117547   0.488111  -0.036825  -0.155297
   23  C  5  X   -0.050682  -0.077913  -0.065283   0.074981  -0.057734
   24  C  5  Y   -0.130915  -0.189470  -0.269724   0.323488  -0.334822
   25  C  5  Z   -0.012462  -0.007687  -0.046094  -0.621722   0.299385
   26  C  6  S    0.010510  -0.092849   0.030744   0.001530  -0.016672
   27  C  6  S   -0.056813   0.582441  -0.198441  -0.010946   0.103257
   28  C  6  X    0.054618   0.185535  -0.014107   0.034970   0.080258
   29  C  6  Y   -0.035888  -0.396244   0.241066  -0.010964   0.441703
   30  C  6  Z    0.258232  -0.237423  -0.504881  -0.304513   0.031597
   31  C  7  S   -0.066769   0.067470   0.044271  -0.009070   0.021499
   32  C  7  S    0.422834  -0.451880  -0.301108   0.058447  -0.151868
   33  C  7  X   -0.017375   0.033369   0.110364   0.155908   0.110694
   34  C  7  Y    0.151191   0.067758   0.290913  -0.105424  -0.293203
   35  C  7  Z    0.000176   0.002080   0.092890  -0.543130  -0.529905
   36  C  8  S    0.116598   0.012577   0.077449   0.003118  -0.035767
   37  C  8  S   -0.762818  -0.085733  -0.520324  -0.017420   0.257291
   38  C  8  X   -0.008810  -0.116120  -0.031504  -0.246777  -0.184181
   39  C  8  Y   -0.107143  -0.295415  -0.239407  -0.170924  -0.175199
   40  C  8  Z    0.086268   0.018523  -0.095576   0.561576   0.182944
   41  C  9  S    0.004992   0.030719  -0.015379  -0.013732   0.110889
   42  C  9  S   -0.031225  -0.196749   0.098916   0.090205  -0.730976
   43  C  9  X    0.093629   0.077043   0.105969  -0.084025   0.030438
   44  C  9  Y    0.068699  -0.105296   0.119212   0.027658  -0.675120
   45  C  9  Z   -0.535789  -0.260830  -0.555628   0.417999  -0.015354
   46  O 10  S   -0.001390  -0.020990   0.008825   0.010179  -0.084408
   47  O 10  S    0.009268   0.147425  -0.061907  -0.073512   0.611238
   48  O 10  X   -0.025969  -0.023601  -0.027879   0.022298  -0.010711
   49  O 10  Y   -0.031346  -0.181098   0.054255   0.095184  -0.675456
   50  O 10  Z    0.155498   0.043450   0.158964  -0.096563  -0.102438
   51  H 11  S   -0.029090   0.795348  -0.363130   0.001989  -0.113303
   52  H 12  S   -0.701893   0.403316   0.362992   0.130819   0.002094
   53  H 13  S   -0.222372  -0.121981   0.243190   0.067580  -0.161308
   54  H 14  S    0.081755   0.015760  -0.022325   0.050580  -0.143526
   55  H 15  S   -0.145836  -0.214903   0.191411  -0.041408   0.199043
   56  H 16  S   -0.449503  -0.082315  -0.369513  -0.507069   0.024105
   57  H 17  S    0.119489  -0.042243  -0.330407   0.545829  -0.277499
   58  H 18  S   -0.009519  -0.647306   0.265979  -0.023937   0.239350
   59  H 19  S   -0.124389   0.212831   0.262669  -0.456044  -0.408400
   60  H 20  S    0.468041   0.227860   0.287883   0.478418   0.145657

                     56         57         58         59         60
                    0.9333     0.9458     1.0466     1.0752     1.1299
                     A          A          A          A          A   
    1  C  1  S    0.001604  -0.051654   0.017029   0.001765  -0.004788
    2  C  1  S   -0.012851   0.335526  -0.114624  -0.010863   0.030984
    3  C  1  X    0.101346  -0.177150   0.110266   0.045392   0.034909
    4  C  1  Y   -0.098563   0.369185   0.169747   0.057408  -0.067432
    5  C  1  Z   -0.045005   0.080169  -0.244450  -0.135947   0.004252
    6  C  2  S    0.005324  -0.012665   0.102508   0.023452  -0.006082
    7  C  2  S   -0.044942   0.112092  -0.837884  -0.193864   0.045206
    8  C  2  X    0.152578  -0.507472   0.223592   0.059890   0.011294
    9  C  2  Y    0.002890  -0.008180  -1.120313  -0.298413   0.034035
   10  C  2  Z   -0.221708   0.703715   0.169538   0.038497  -0.030111
   11  C  3  S   -0.001649   0.004582  -0.109752  -0.028046   0.003646
   12  C  3  S    0.011059  -0.029600   0.885672   0.228251  -0.029788
   13  C  3  X   -0.164389   0.501009   0.193882   0.046933  -0.015501
   14  C  3  Y   -0.012152   0.030638  -1.066831  -0.265441   0.038654
   15  C  3  Z    0.235034  -0.708947   0.168112   0.046092   0.002147
   16  C  4  S   -0.061455  -0.013391  -0.016467   0.055851  -0.062109
   17  C  4  S    0.475466   0.106606   0.138850  -0.477586   0.502271
   18  C  4  X   -0.168883  -0.030691  -0.052799   0.193113  -0.117625
   19  C  4  Y   -0.474980  -0.140709  -0.243011   0.800868  -0.530592
   20  C  4  Z    0.440207   0.188104  -0.049826   0.033473  -0.468492
   21  C  5  S    0.054930   0.010430   0.021225  -0.058625   0.065052
   22  C  5  S   -0.426876  -0.090906  -0.177280   0.498128  -0.529207
   23  C  5  X   -0.072064  -0.025435  -0.073988   0.222276  -0.148978
   24  C  5  Y   -0.392182  -0.040576  -0.204924   0.741934  -0.558422
   25  C  5  Z   -0.506833  -0.306261  -0.034056   0.245714   0.138539
   26  C  6  S    0.080645   0.029358  -0.001736   0.001284  -0.010777
   27  C  6  S   -0.530108  -0.188794   0.009761  -0.008764   0.066386
   28  C  6  X   -0.161273  -0.013964   0.012747  -0.063956   0.063913
   29  C  6  Y   -0.001681  -0.203417  -0.016724  -0.055801   0.289563
   30  C  6  Z   -0.004879  -0.068681  -0.012395   0.354460   0.055817
   31  C  7  S    0.050303   0.014662  -0.017957   0.057809   0.065487
   32  C  7  S   -0.394670  -0.119497   0.148961  -0.495069  -0.535733
   33  C  7  X   -0.247976  -0.111279   0.060165  -0.273995  -0.070173
   34  C  7  Y   -0.493530  -0.114720   0.179115  -0.770843  -0.514681
   35  C  7  Z    0.362945   0.196379   0.032598  -0.032184  -0.312039
   36  C  8  S   -0.060503  -0.014773   0.013255  -0.056098  -0.062873
   37  C  8  S    0.469601   0.114681  -0.112681   0.480715   0.510169
   38  C  8  X    0.044244   0.018669   0.040298  -0.154493  -0.261881
   39  C  8  Y   -0.322028  -0.111752   0.201058  -0.778201  -0.634811
   40  C  8  Z   -0.588636  -0.169953   0.061667  -0.233462   0.245329
   41  C  9  S   -0.034298  -0.037011  -0.001557  -0.000198  -0.029899
   42  C  9  S    0.232769   0.246028   0.011977   0.001750   0.209939
   43  C  9  X    0.034381  -0.006219  -0.013960   0.071837   0.057721
   44  C  9  Y   -0.427122   0.052581   0.032726   0.050621   0.850346
   45  C  9  Z   -0.048845   0.019525   0.102852  -0.360276   0.115609
   46  O 10  S   -0.023316   0.014356   0.003636   0.000402   0.065797
   47  O 10  S    0.177532  -0.103344  -0.027681  -0.003197  -0.508329
   48  O 10  X   -0.009192   0.001350   0.001483  -0.012093  -0.017038
   49  O 10  Y   -0.181375   0.116713   0.030477  -0.004233   0.513404
   50  O 10  Z   -0.023692   0.010805  -0.012725   0.060809   0.060496
   51  H 11  S   -0.056702   0.109630   0.166787   0.053258  -0.043593
   52  H 12  S   -0.015685  -0.138682  -0.139554  -0.089659   0.006521
   53  H 13  S    0.189558  -0.598069  -0.121042  -0.036501   0.016164
   54  H 14  S    0.184055  -0.549661   0.116852   0.028995  -0.002071
   55  H 15  S   -0.187134   0.562029   0.081459   0.015351  -0.010259
   56  H 16  S   -0.339000  -0.129897   0.047261  -0.068975   0.241127
   57  H 17  S    0.235946   0.183450  -0.022571   0.055774  -0.141155
   58  H 18  S    0.210357  -0.063431  -0.020161  -0.005215   0.117779
   59  H 19  S    0.245988   0.150571   0.020126  -0.051264  -0.142062
   60  H 20  S   -0.360741  -0.091203  -0.021974   0.069333   0.242845

 THE NUCLEAR REPULSION AT THE IRC POINT IS      494.9194781515

 * * * IRC RESTART INFORMATION * * *
 COORDINATES FOR $DATA AND ENTIRE $IRC GROUP FOLLOW

 COORDINATES OF SYMMETRY UNIQUE ATOMS (ANGS)
   ATOM   CHARGE       X              Y              Z
 ------------------------------------------------------------
 C           6.0  -0.9170686756  -5.3587906924  -1.7649763347
 C           6.0  -1.8405999272  -4.5056012244  -0.8949034576
 C           6.0  -2.0938477380  -3.2339891221  -1.0742517934
 C           6.0   1.1611517840  -3.3948352475   0.2177406648
 C           6.0   0.8243669600  -4.6432280652  -0.0148924793
 C           6.0   0.6193068513  -5.2012006593  -1.4206180222
 C           6.0   1.3030194495  -4.3269004815  -2.4675632492
 C           6.0   1.6468055696  -3.0783735986  -2.2532436975
 C           6.0   1.4107107453  -2.4207475219  -0.9128158026
 O           8.0   1.4104291551  -1.2044476645  -0.7613964910
 H           1.0  -1.1924891364  -6.4037751354  -1.6421234987
 H           1.0  -1.0629216317  -5.1094063450  -2.8141178481
 H           1.0  -2.2846871141  -5.0232798015  -0.0518509109
 H           1.0  -1.6720844477  -2.6667757459  -1.8929958521
 H           1.0  -2.7430585751  -2.6841818654  -0.4068937697
 H           1.0   1.2585492798  -3.0072143567   1.2239053327
 H           1.0   0.6317878425  -5.3294702627   0.8026675564
 H           1.0   1.0634053120  -6.1969799826  -1.4687642977
 H           1.0   1.4566161400  -4.7892787876  -3.4367705442
 H           1.0   2.0933607788  -2.4657221848  -3.0260339998
 $IRC   PACE=GS2        STRIDE= 0.10000   NPOINT=??
        STOTAL=  9.998429   NEXTPT= 101
        NPRT= 0   NPUN= 0   SADDLE=.FALSE.
        GA(   1)= 4.695268374E-05, 8.461051287E-04,-9.446206341E-04
        GA(   4)=-2.523211924E-04,-1.507622627E-04,-2.554854770E-04
        GA(   7)= 1.356148658E-03, 5.275271395E-04, 2.275767116E-03
        GA(  10)=-5.530669566E-04, 9.652403022E-05,-1.301386337E-04
        GA(  13)=-3.565837072E-04, 4.549336276E-05, 9.255982506E-06
        GA(  16)=-7.597524348E-07,-1.144393637E-04,-5.391396110E-06
        GA(  19)= 1.065805966E-03,-6.450627817E-04, 2.425863331E-04
        GA(  22)= 8.088486199E-04,-5.270381203E-04, 7.257540210E-05
        GA(  25)=-4.836124067E-04,-1.405270384E-04,-3.403076777E-04
        GA(  28)=-1.961074420E-03,-8.960170408E-05,-1.112068011E-03
        GA(  31)=-2.490042507E-05, 7.081016419E-05,-2.203278627E-04
        GA(  34)= 5.362074348E-05, 1.977230198E-04,-4.200774184E-05
        GA(  37)=-1.634867896E-04,-1.303599754E-04,-1.782073801E-04
        GA(  40)= 2.685398546E-04, 1.751479431E-04, 3.340816584E-04
        GA(  43)= 7.995697096E-05,-1.924317321E-05, 2.291004137E-04
        GA(  46)=-7.037499473E-05, 2.353899539E-05,-2.788439097E-05
        GA(  49)=-4.351353883E-05, 1.246455242E-05,-2.231288121E-06
        GA(  52)=-5.579051573E-05,-2.214278240E-05, 3.478575563E-05
        GA(  55)= 1.631249936E-04,-8.987890176E-05, 3.948238163E-05
        GA(  58)= 1.224862160E-04,-6.627828460E-05, 2.103542935E-05
 $END   
 A GS2 RESTART ALSO REQUIRES THE UPDATED $HESS GROUP FROM THE PUNCH FILE
 ......DONE WITH THIS PORTION OF THE IRC......
 STEP CPU TIME =     0.02 TOTAL CPU TIME =        217.6 (      3.6 MIN)
 TOTAL WALL CLOCK TIME=        222.8 SECONDS, CPU UTILIZATION IS    97.67%
               580000  WORDS OF DYNAMIC MEMORY USED
 EXECUTION OF GAMESS TERMINATED NORMALLY Sat Nov 13 14:00:51 2021
 DDI: 263640 bytes (0.3 MB / 0 MWords) used by master data server.

 ----------------------------------------
 CPU timing information for all processes
 ========================================
 0: 201.185 + 16.453 = 217.639
 ----------------------------------------
 ddikick.x: exited gracefully.
----- accounting info -----
Files used on the master node chemcompute-node-0.novalocal were:
-rw-r--r--. 1 chemcomp chemcomp    60520 Nov 13 13:57 /scratch/305944/341840.F05
-rw-rw-r--. 1 chemcomp chemcomp 17281536 Nov 13 14:00 /scratch/305944/341840.F08
-rw-rw-r--. 1 chemcomp chemcomp 52428800 Nov 13 14:00 /scratch/305944/341840.F10
Sat Nov 13 14:00:54 UTC 2021
0.135u 0.104s 3:46.40 0.1%	0+0k 120+328io 0pf+0w
Finishing Up...
Looking for IR data...
Looking for Raman data...
vibramans not found
Looking for thermodynamics data...
Looking for UV-Vis data...
305944
