----- GAMESS execution script 'rungms' -----
This job is running on host chemcompute-node-0.novalocal
under operating system Linux at Sat Nov 13 14:05:57 UTC 2021
SLURM has assigned the following compute nodes to this run:
chemcompute-node-0
Available scratch disk space (Kbyte units) at beginning of the job is
Filesystem     1K-blocks     Used Available Use% Mounted on
/dev/sda1       62903276 21358740  41544536  34% /
GAMESS temporary binary files will be written to /scratch/305950
GAMESS supplementary output files will be written to /data/slurm/341848
Copying input file 341848.inp to your run's scratch directory...
The generated host list is
chemcompute-node-0.novalocal

 Distributed Data Interface kickoff program.
 Initiating 1 compute processes on 1 nodes to run the following command:
 /data/gamess-2019R1-ddi/gamess.00.x 341848 

          ******************************************************
          *         GAMESS VERSION = 30 JUN 2019 (R1)          *
          *             FROM IOWA STATE UNIVERSITY             *
          * M.W.SCHMIDT, K.K.BALDRIDGE, J.A.BOATZ, S.T.ELBERT, *
          *   M.S.GORDON, J.H.JENSEN, S.KOSEKI, N.MATSUNAGA,   *
          *          K.A.NGUYEN, S.J.SU, T.L.WINDUS,           *
          *       TOGETHER WITH M.DUPUIS, J.A.MONTGOMERY       *
          *         J.COMPUT.CHEM.  14, 1347-1363(1993)        *
          **************** 64 BIT LINUX VERSION ****************

  SINCE 1993, STUDENTS AND POSTDOCS WORKING AT IOWA STATE UNIVERSITY
  AND ALSO IN THEIR VARIOUS JOBS AFTER LEAVING ISU HAVE MADE IMPORTANT
  CONTRIBUTIONS TO THE CODE:
     IVANA ADAMOVIC, CHRISTINE AIKENS, YURI ALEXEEV, POOJA ARORA,
     ANDREY ASADCHEV, ROB BELL, PRADIPTA BANDYOPADHYAY, JONATHAN BENTZ,
     COLLEEN BERTONI, BRETT BODE, KURT BRORSEN, CALEB CARLIN, GALINA CHABAN,
     WEI CHEN, CHEOL HO CHOI, PAUL DAY, ALBERT DEFUSCO, NUWAN DESILVA,
     TIM DUDLEY, DMITRI FEDOROV, ALEX FINDLATER, GRAHAM FLETCHER, 
     MARK FREITAG, KURT GLAESEMANN, ANASTASIA GUNINA,
     DAN KEMP, GRANT MERRILL, NORIYUKI MINEZAWA, JONATHAN MULLIN,
     TAKESHI NAGATA, SEAN NEDD, HEATHER NETZLOFF, BOSILJKA NJEGIC, RYAN OLSON,
     MIKE PAK, BUU PHAM,
     SPENCER PRUITT, LUKE ROSKOP, JIM SHOEMAKER, LYUDMILA SLIPCHENKO,
     TONY SMITH, SAROM SOK LEANG, JIE SONG, TETSUYA TAKETSUGU, SIMON WEBB,
     PENG XU, SOOHAENG YOO, FEDERICO ZAHARIEV

  ADDITIONAL CODE HAS BEEN PROVIDED BY COLLABORATORS IN OTHER GROUPS:
     IOWA STATE UNIVERSITY:
          JOE IVANIC, AARON WEST, LAIMUTIS BYTAUTAS, KLAUS RUEDENBERG
     UNIVERSITY OF TOKYO: KIMIHIKO HIRAO, TAKAHITO NAKAJIMA,
          TAKAO TSUNEDA, MUNEAKI KAMIYA, SUSUMU YANAGISAWA,
          KIYOSHI YAGI, MAHITO CHIBA, SEIKEN TOKURA, NAOAKI KAWAKAMI
     UNIVERSITY OF AARHUS: FRANK JENSEN
     UNIVERSITY OF IOWA: VISVALDAS KAIRYS, HUI LI
     NATIONAL INST. OF STANDARDS AND TECHNOLOGY: WALT STEVENS, DAVID GARMER
     UNIVERSITY OF PISA: BENEDETTA MENNUCCI, JACOPO TOMASI
     UNIVERSITY OF MEMPHIS: HENRY KURTZ, PRAKASHAN KORAMBATH
     UNIVERSITY OF ALBERTA: TOBY ZENG, MARIUSZ KLOBUKOWSKI
     UNIVERSITY OF NEW ENGLAND: MARK SPACKMAN
     MIE UNIVERSITY: HIROAKI UMEDA
     NAT. INST. OF ADVANCED INDUSTRIAL SCIENCE AND TECHNOLOGY: KAZUO KITAURA
     MICHIGAN STATE UNIVERSITY:
          KAROL KOWALSKI, MARTA WLOCH, JEFFREY GOUR, JESSE LUTZ,
          WEI LI, JUN SHEN, J. EMILIANO DEUSTUA, PIOTR PIECUCH
     UNIVERSITY OF MINNESOTA:
          YINAN SHU
     UNIVERSITY OF SILESIA: MONIKA MUSIAL, STANISLAW KUCHARSKI
     FACULTES UNIVERSITAIRES NOTRE-DAME DE LA PAIX:
          OLIVIER QUINET, BENOIT CHAMPAGNE
     UNIVERSITY OF CALIFORNIA - SANTA BARBARA: BERNARD KIRTMAN
     INSTITUTE FOR MOLECULAR SCIENCE:
          KAZUYA ISHIMURA, MICHIO KATOUDA, AND SHIGERU NAGASE
     UNIVERSITY OF NOTRE DAME: ANNA POMOGAEVA, DAN CHIPMAN
     KYUSHU UNIVERSITY:
          HARUYUKI NAKANO,
          FENG LONG GU, JACEK KORCHOWIEC, MARCIN MAKOWSKI, AND YURIKO AOKI,
          HIROTOSHI MORI AND EISAKU MIYOSHI
     PENNSYLVANIA STATE UNIVERSITY:
          TZVETELIN IORDANOV, CHET SWALINA, JONATHAN SKONE,
          SHARON HAMMES-SCHIFFER
     WASEDA UNIVERSITY:
          MASATO KOBAYASHI, TOMOKO AKAMA, TSUGUKI TOUMA,
          TAKESHI YOSHIKAWA, YASUHIRO IKABATA, JUNJI SEINO,
          YUYA NAKAJIMA, HIROMI NAKAI
     NANJING UNIVERSITY: SHUHUA LI
     UNIVERSITY OF NEBRASKA:
          PEIFENG SU, DEJUN SI, NANDUN THELLAMUREGE, YALI WANG, HUI LI
     UNIVERSITY OF ZURICH: ROBERTO PEVERATI, KIM BALDRIDGE
     N. COPERNICUS UNIVERSITY AND JACKSON STATE UNIVERSITY:
          MARIA BARYSZ
     UNIVERSITY OF COPENHAGEN: Jimmy Kromann, CASPER STEINMANN
     TOKYO INSTITUTE OF TECHNOLOGY: HIROYA NAKATA
     NAGOYA UNIVERSITY: YOSHIO NISHIMOTO, STEPHAN IRLE
     MOSCOW STATE UNIVERSITY: VLADIMIR MIRONOV
     A.N.NESMEYANOV INSTITUTE OF ORGANOELEMENT COMPOUNDS OF RUSSIAN ACADEMY OF SCIENCES:
          IGOR S. GERASIMOV

 EXECUTION OF GAMESS BEGUN Sat Nov 13 14:05:58 2021

            ECHO OF THE FIRST FEW INPUT CARDS -
 INPUT CARD>!File created by the GAMESS Input Deck Generator Plugin for Avogadro            
 INPUT CARD> $BASIS GBASIS=STO NGAUSS=3 $END                                                
 INPUT CARD> $CONTRL SCFTYP=RHF RUNTYP=IRC $END                                             
 INPUT CARD> $STATPT HESS=READ ihrep=5 $END                                                 
 INPUT CARD> $irc npoint=100 saddle=.t. tsengy=.t. forwrd=.f. opttol=0.0005 stride=0.1 $end 
 INPUT CARD>                                                                                
 INPUT CARD> $DATA                                                                          
 INPUT CARD>Title                                                                           
 INPUT CARD>C1                                                                              
 INPUT CARD>C     6.0    -1.04969728    -5.23015928    -1.91053021                          
 INPUT CARD>C     6.0    -1.76900375    -4.49598503    -0.95110190                          
 INPUT CARD>C     6.0    -1.34520411    -3.19445276    -0.63507968                          
 INPUT CARD>C     6.0     0.46850795    -3.32943916     0.01728281                          
 INPUT CARD>C     6.0     0.81441349    -4.68988848    -0.05062803                          
 INPUT CARD>C     6.0     0.79390699    -5.26817560    -1.33406794                          
 INPUT CARD>C     6.0     1.43508279    -4.42282820    -2.41214871                          
 INPUT CARD>C     6.0     1.61499250    -3.12680459    -2.26523495                          
 INPUT CARD>C     6.0     1.16694283    -2.41691494    -1.00749874                          
 INPUT CARD>O     8.0     1.33856952    -1.22131586    -0.81611156                          
 INPUT CARD>H     1.0    -1.31714880    -6.27490854    -2.03356314                          
 INPUT CARD>H     1.0    -0.85933310    -4.74450493    -2.86048079                          
 INPUT CARD>H     1.0    -2.25467372    -5.05941343    -0.16266720                          
 INPUT CARD>H     1.0    -1.14355087    -2.53178930    -1.46894765                          
 INPUT CARD>H     1.0    -1.85653484    -2.68500900     0.17504252                          
 INPUT CARD>H     1.0     0.40934473    -2.87866092     1.00417185                          
 INPUT CARD>H     1.0     0.64451611    -5.32095194     0.81311429                          
 INPUT CARD>H     1.0     1.03079128    -6.32558870    -1.40890074                          
 INPUT CARD>H     1.0     1.74341989    -4.93469238    -3.31731606                          
 INPUT CARD>H     1.0     2.10045338    -2.52210307    -3.01986122                          
 INPUT CARD> $END                                                                           
 INPUT CARD>                                                                                
 INPUT CARD> $HESS                                                                          
 INPUT CARD>ENERGY IS     -416.0920679036 E(NUC) IS      508.0229384070                     
 INPUT CARD> 1  1 1.30439058E-01 1.12566261E-01-1.96250543E-01-1.28697968E-01-7.51390371E-02
 INPUT CARD> 1  2 6.31234073E-02 1.49082304E-01 8.35954906E-02 4.70144271E-02-1.27033247E-01
 INPUT CARD> 1  3 9.32037568E-02-3.25285122E-02-7.38628334E-03-1.40035371E-01-1.20025167E-01
 INPUT CARD> 1  4 1.59616389E-01 5.25962264E-02 1.45017714E-01-4.27144090E-02-1.99140680E-02
 INPUT CARD> 1  5 5.31579383E-03-3.90948994E-03 1.18618739E-02-1.45352440E-04 1.11105702E-02
 INPUT CARD> 1  6-2.51535380E-03 5.29719464E-03-1.26537838E-03 3.47448724E-03-2.14845758E-03
 INPUT CARD> 1  7-7.22899306E-02-9.24433635E-02 4.37295152E-03-3.22382057E-02-3.45552899E-02
 INPUT CARD> 1  8 8.13783162E-02-2.46119597E-03 1.26807468E-02 7.76462414E-03-2.11152295E-02
 INPUT CARD> 1  9 1.81933864E-03-4.65144163E-03-2.52424312E-03-3.28895220E-03-1.65321265E-03
 INPUT CARD> 1 10 7.18216304E-03 3.10281004E-05 4.83158951E-04-6.51350857E-06-4.14905817E-05
 INPUT CARD> 1 11 1.66945955E-03-2.07887324E-02-3.43173128E-03-5.56399494E-03 1.68357389E-03
 INPUT CARD> 1 12 5.63063337E-05 2.34433022E-04 3.31398679E-03-5.23672887E-04 1.29708489E-03
 INPUT CARD> 2  1 1.12566261E-01 8.96344072E-01 4.21916045E-02 7.39079558E-02-1.97559742E-01
 INPUT CARD> 2  2-1.14592063E-01-2.07537224E-02-5.15384621E-02-5.55721729E-02 3.94436903E-02
 INPUT CARD> 2  3-2.98464461E-02 6.50064541E-03-2.93157406E-04 3.42855350E-02 2.92101242E-02
 INPUT CARD> 2  4-5.05058773E-02-5.53878109E-02-3.54692159E-02-4.26298675E-03 1.32948438E-03
 INPUT CARD> 2  5-2.45882855E-03 1.79755272E-04-2.71849918E-03 3.86690999E-04-4.81741656E-03
    1000000 WORDS OF MEMORY AVAILABLE

     BASIS OPTIONS
     -------------
     GBASIS=STO          IGAUSS=       3      POLAR=NONE    
     NDFUNC=       0     NFFUNC=       0     DIFFSP=       F
     NPFUNC=       0      DIFFS=       F     BASNAM=        


     RUN TITLE
     ---------
 Title                                                                           

 THE POINT GROUP OF THE MOLECULE IS C1      
 THE ORDER OF THE PRINCIPAL AXIS IS     0

 ATOM      ATOMIC                      COORDINATES (BOHR)
           CHARGE         X                   Y                   Z
 C           6.0    -1.9836402293       -9.8835679113       -3.6103785882
 C           6.0    -3.3429323588       -8.4961797516       -1.7973219774
 C           6.0    -2.5420671655       -6.0366403971       -1.2001265756
 C           6.0     0.8853516486       -6.2917277052        0.0326597752
 C           6.0     1.5390183368       -8.8626041402       -0.0956731040
 C           6.0     1.5002666708       -9.9554083392       -2.5210228556
 C           6.0     2.7119132428       -8.3579333888       -4.5583001035
 C           6.0     3.0518932972       -5.9088038923       -4.2806733533
 C           6.0     2.2052021920       -4.5673069722       -1.9038965516
 O           8.0     2.5295296083       -2.3079523199       -1.5422272238
 H           1.0    -2.4890503171      -11.8578577386       -3.8428771133
 H           1.0    -1.6239040912       -8.9658142651       -5.4055248862
 H           1.0    -4.2607155225       -9.5609050413       -0.3073964352
 H           1.0    -2.1609977973       -4.7843880356       -2.7759085488
 H           1.0    -3.5083421343       -5.0739312846        0.3307823990
 H           1.0     0.7735493742       -5.4398803504        1.8976096411
 H           1.0     1.2179588426      -10.0551411604        1.5365632048
 H           1.0     1.9479130697      -11.9536293540       -2.6624363425
 H           1.0     3.2945858736       -9.3252164319       -6.2688183681
 H           1.0     3.9692813382       -4.7660837151       -5.7067102267

          INTERNUCLEAR DISTANCES (ANGS.)
          ------------------------------

                1 C          2 C          3 C          4 C          5 C     

   1 C       0.0000000    1.4060286 *  2.4203717 *  3.1038923    2.6881290 *
   2 C       1.4060286 *  0.0000000    1.4047998 *  2.7027869 *  2.7427170 *
   3 C       2.4203717 *  1.4047998 *  0.0000000    1.9321878 *  2.6910704 *
   4 C       3.1038923    2.7027869 *  1.9321878 *  0.0000000    1.4053771 *
   5 C       2.6881290 *  2.7427170 *  2.6910704 *  1.4053771 *  0.0000000  
   6 C       1.9320017 *  2.7039698 *  3.0601809    2.3855256 *  1.4078546 *
   7 C       2.6603640 *  3.5222408    3.5209197    2.8340614 *  2.4562841 *
   8 C       3.4132811    3.8798236    3.3800512    2.5622988 *  2.8264185 *
   9 C       3.6936842    3.5979849    2.6559637 *  1.5397042 *  2.4912421 *
  10 O       4.7929527    4.5164911    3.3359680    2.4281139 *  3.5905014  
  11 H       1.0854347 *  2.1308365 *  3.3831569    4.0087815    3.3147968  
  12 H       1.0837457 *  2.1295517 *  2.7552028 *  3.4708927    3.2710370  
  13 H       2.1298233 *  1.0839539 *  2.1280007 *  3.2312399    3.0932827  
  14 H       2.7358736 *  2.1254224 *  1.0840308 *  2.3332081 *  3.2407788  
  15 H       3.3879773    2.1343611 *  1.0850300 *  2.4178508 *  3.3473025  
  16 H       4.0191835    3.3442540    2.4218406 *  1.0865778 *  2.1347667 *
  17 H       3.2088692    3.1013074    3.2524223    2.1518480 *  1.0831237 *
  18 H       2.4041694 *  3.3757787    4.0060162    3.3655719    2.1371100 *
  19 H       3.1413135    4.2577639    4.4454948    3.9143056    3.4050305  
  20 H       4.2997247    4.8113068    4.2440302    3.5410848    3.8948091  

                6 C          7 C          8 C          9 C         10 O     

   1 C       1.9320017 *  2.6603640 *  3.4132811    3.6936842    4.7929527  
   2 C       2.7039698 *  3.5222408    3.8798236    3.5979849    4.5164911  
   3 C       3.0601809    3.5209197    3.3800512    2.6559637 *  3.3359680  
   4 C       2.3855256 *  2.8340614 *  2.5622988 *  1.5397042 *  2.4281139 *
   5 C       1.4078546 *  2.4562841 *  2.8264185 *  2.4912421 *  3.5905014  
   6 C       0.0000000    1.5126060 *  2.4752219 *  2.8940440 *  4.1160673  
   7 C       1.5126060 *  0.0000000    1.3166732 *  2.4634587 *  3.5785934  
   8 C       2.4752219 *  1.3166732 *  0.0000000    1.5121482 *  2.4098248 *
   9 C       2.8940440 *  2.4634587 *  1.5121482 *  0.0000000    1.2229235 *
  10 O       4.1160673    3.5785934    2.4098248 *  1.2229235 *  0.0000000  
  11 H       2.4411803 *  3.3389081    4.3083272    4.7018756    5.8372791  
  12 H       2.3102749 *  2.3598351 *  3.0155529    3.5995849    4.6285076  
  13 H       3.2725534    4.3680328    4.8093747    4.4049970    5.2980543  
  14 H       3.3555544    3.3339178    2.9321798 *  2.3589219 *  2.8817455 *
  15 H       3.9968745    4.5330256    4.2663380    3.2575597    3.6515032  
  16 H       3.3652688    3.8868802    3.4934485    2.1986320 *  2.6312892 *
  17 H       2.1530199 *  3.4400499    3.9028632    3.4671303    4.4657701  
  18 H       1.0862028 *  2.1887110 *  3.3625614    3.9315889    5.1477886  
  19 H       2.2239737 *  1.0846219 *  2.0956685 *  3.4650808    4.4954525  
  20 H       3.4770500    2.1035181 *  1.0820337 *  2.2208353 *  2.6700238 *

               11 H         12 H         13 H         14 H         15 H     

   1 C       1.0854347 *  1.0837457 *  2.1298233 *  2.7358736 *  3.3879773  
   2 C       2.1308365 *  2.1295517 *  1.0839539 *  2.1254224 *  2.1343611 *
   3 C       3.3831569    2.7552028 *  2.1280007 *  1.0840308 *  1.0850300 *
   4 C       4.0087815    3.4708927    3.2312399    2.3332081 *  2.4178508 *
   5 C       3.3147968    3.2710370    3.0932827    3.2407788    3.3473025  
   6 C       2.4411803 *  2.3102749 *  3.2725534    3.3555544    3.9968745  
   7 C       3.3389081    2.3598351 *  4.3680328    3.3339178    4.5330256  
   8 C       4.3083272    3.0155529    4.8093747    2.9321798 *  4.2663380  
   9 C       4.7018756    3.5995849    4.4049970    2.3589219 *  3.2575597  
  10 O       5.8372791    4.6285076    5.2980543    2.8817455 *  3.6515032  
  11 H       0.0000000    1.7987560 *  2.4200481 *  3.7894417    4.2492652  
  12 H       1.7987560 *  0.0000000    3.0535784    2.6293069 *  3.8013598  
  13 H       2.4200481 *  3.0535784    0.0000000    3.0544797    2.4311230 *
  14 H       3.7894417    2.6293069 *  3.0544797    0.0000000    1.7984788 *
  15 H       4.2492652    3.8013598    2.4311230 *  1.7984788 *  0.0000000  
  16 H       4.8726904    4.4750930    3.6351326    2.9407694 *  2.4205716 *
  17 H       3.5863261    4.0111288    3.0701553    4.0229863    3.6892529  
  18 H       2.4301428 *  2.8599791 *  3.7350473    4.3731320    4.9091088  
  19 H       3.5792851    2.6493759 *  5.0943221    4.1862882    5.4970281  
  20 H       5.1707192    3.7047008    5.7938445    3.5956905    5.0883891  

               16 H         17 H         18 H         19 H         20 H     

   1 C       4.0191835    3.2088692    2.4041694 *  3.1413135    4.2997247  
   2 C       3.3442540    3.1013074    3.3757787    4.2577639    4.8113068  
   3 C       2.4218406 *  3.2524223    4.0060162    4.4454948    4.2440302  
   4 C       1.0865778 *  2.1518480 *  3.3655719    3.9143056    3.5410848  
   5 C       2.1347667 *  1.0831237 *  2.1371100 *  3.4050305    3.8948091  
   6 C       3.3652688    2.1530199 *  1.0862028 *  2.2239737 *  3.4770500  
   7 C       3.8868802    3.4400499    2.1887110 *  1.0846219 *  2.1035181 *
   8 C       3.4934485    3.9028632    3.3625614    2.0956685 *  1.0820337 *
   9 C       2.1986320 *  3.4671303    3.9315889    3.4650808    2.2208353 *
  10 O       2.6312892 *  4.4657701    5.1477886    4.4954525    2.6700238 *
  11 H       4.8726904    3.5863261    2.4301428 *  3.5792851    5.1707192  
  12 H       4.4750930    4.0111288    2.8599791 *  2.6493759 *  3.7047008  
  13 H       3.6351326    3.0701553    3.7350473    5.0943221    5.7938445  
  14 H       2.9407694 *  4.0229863    4.3731320    4.1862882    3.5956905  
  15 H       2.4205716 *  3.6892529    4.9091088    5.4970281    5.0883891  
  16 H       0.0000000    2.4610148 *  4.2532842    4.9681264    4.3794776  
  17 H       2.4610148 *  0.0000000    2.4689784 *  4.2915313    4.9643740  
  18 H       4.2532842    2.4689784 *  0.0000000    2.4666741 *  4.2668341  
  19 H       4.9681264    4.2915313    2.4666741 *  0.0000000    2.4569370 *
  20 H       4.3794776    4.9643740    4.2668341    2.4569370 *  0.0000000  

  * ... LESS THAN  3.000


     ATOMIC BASIS SET
     ----------------
 THE CONTRACTED PRIMITIVE FUNCTIONS HAVE BEEN UNNORMALIZED
 THE CONTRACTED BASIS FUNCTIONS ARE NOW NORMALIZED TO UNITY

  SHELL TYPE  PRIMITIVE        EXPONENT          CONTRACTION COEFFICIENT(S)

 C         

      1   S       1            71.6168373    0.154328967295
      1   S       2            13.0450963    0.535328142282
      1   S       3             3.5305122    0.444634542185

      2   L       4             2.9412494   -0.099967229187    0.155916274999
      2   L       5             0.6834831    0.399512826089    0.607683718598
      2   L       6             0.2222899    0.700115468880    0.391957393099

 C         

      3   S       7            71.6168373    0.154328967295
      3   S       8            13.0450963    0.535328142282
      3   S       9             3.5305122    0.444634542185

      4   L      10             2.9412494   -0.099967229187    0.155916274999
      4   L      11             0.6834831    0.399512826089    0.607683718598
      4   L      12             0.2222899    0.700115468880    0.391957393099

 C         

      5   S      13            71.6168373    0.154328967295
      5   S      14            13.0450963    0.535328142282
      5   S      15             3.5305122    0.444634542185

      6   L      16             2.9412494   -0.099967229187    0.155916274999
      6   L      17             0.6834831    0.399512826089    0.607683718598
      6   L      18             0.2222899    0.700115468880    0.391957393099

 C         

      7   S      19            71.6168373    0.154328967295
      7   S      20            13.0450963    0.535328142282
      7   S      21             3.5305122    0.444634542185

      8   L      22             2.9412494   -0.099967229187    0.155916274999
      8   L      23             0.6834831    0.399512826089    0.607683718598
      8   L      24             0.2222899    0.700115468880    0.391957393099

 C         

      9   S      25            71.6168373    0.154328967295
      9   S      26            13.0450963    0.535328142282
      9   S      27             3.5305122    0.444634542185

     10   L      28             2.9412494   -0.099967229187    0.155916274999
     10   L      29             0.6834831    0.399512826089    0.607683718598
     10   L      30             0.2222899    0.700115468880    0.391957393099

 C         

     11   S      31            71.6168373    0.154328967295
     11   S      32            13.0450963    0.535328142282
     11   S      33             3.5305122    0.444634542185

     12   L      34             2.9412494   -0.099967229187    0.155916274999
     12   L      35             0.6834831    0.399512826089    0.607683718598
     12   L      36             0.2222899    0.700115468880    0.391957393099

 C         

     13   S      37            71.6168373    0.154328967295
     13   S      38            13.0450963    0.535328142282
     13   S      39             3.5305122    0.444634542185

     14   L      40             2.9412494   -0.099967229187    0.155916274999
     14   L      41             0.6834831    0.399512826089    0.607683718598
     14   L      42             0.2222899    0.700115468880    0.391957393099

 C         

     15   S      43            71.6168373    0.154328967295
     15   S      44            13.0450963    0.535328142282
     15   S      45             3.5305122    0.444634542185

     16   L      46             2.9412494   -0.099967229187    0.155916274999
     16   L      47             0.6834831    0.399512826089    0.607683718598
     16   L      48             0.2222899    0.700115468880    0.391957393099

 C         

     17   S      49            71.6168373    0.154328967295
     17   S      50            13.0450963    0.535328142282
     17   S      51             3.5305122    0.444634542185

     18   L      52             2.9412494   -0.099967229187    0.155916274999
     18   L      53             0.6834831    0.399512826089    0.607683718598
     18   L      54             0.2222899    0.700115468880    0.391957393099

 O         

     19   S      55           130.7093214    0.154328967295
     19   S      56            23.8088661    0.535328142282
     19   S      57             6.4436083    0.444634542185

     20   L      58             5.0331513   -0.099967229187    0.155916274999
     20   L      59             1.1695961    0.399512826089    0.607683718598
     20   L      60             0.3803890    0.700115468880    0.391957393099

 H         

     21   S      61             3.4252509    0.154328967295
     21   S      62             0.6239137    0.535328142282
     21   S      63             0.1688554    0.444634542185

 H         

     22   S      64             3.4252509    0.154328967295
     22   S      65             0.6239137    0.535328142282
     22   S      66             0.1688554    0.444634542185

 H         

     23   S      67             3.4252509    0.154328967295
     23   S      68             0.6239137    0.535328142282
     23   S      69             0.1688554    0.444634542185

 H         

     24   S      70             3.4252509    0.154328967295
     24   S      71             0.6239137    0.535328142282
     24   S      72             0.1688554    0.444634542185

 H         

     25   S      73             3.4252509    0.154328967295
     25   S      74             0.6239137    0.535328142282
     25   S      75             0.1688554    0.444634542185

 H         

     26   S      76             3.4252509    0.154328967295
     26   S      77             0.6239137    0.535328142282
     26   S      78             0.1688554    0.444634542185

 H         

     27   S      79             3.4252509    0.154328967295
     27   S      80             0.6239137    0.535328142282
     27   S      81             0.1688554    0.444634542185

 H         

     28   S      82             3.4252509    0.154328967295
     28   S      83             0.6239137    0.535328142282
     28   S      84             0.1688554    0.444634542185

 H         

     29   S      85             3.4252509    0.154328967295
     29   S      86             0.6239137    0.535328142282
     29   S      87             0.1688554    0.444634542185

 H         

     30   S      88             3.4252509    0.154328967295
     30   S      89             0.6239137    0.535328142282
     30   S      90             0.1688554    0.444634542185

 TOTAL NUMBER OF BASIS SET SHELLS             =   30
 NUMBER OF CARTESIAN GAUSSIAN BASIS FUNCTIONS =   60
 NUMBER OF ELECTRONS                          =   72
 CHARGE OF MOLECULE                           =    0
 SPIN MULTIPLICITY                            =    1
 NUMBER OF OCCUPIED ORBITALS (ALPHA)          =   36
 NUMBER OF OCCUPIED ORBITALS (BETA )          =   36
 TOTAL NUMBER OF ATOMS                        =   20
 THE NUCLEAR REPULSION ENERGY IS      511.4280709981

     $CONTRL OPTIONS
     ---------------
 SCFTYP=RHF          RUNTYP=IRC          EXETYP=RUN     
 MPLEVL=       0     CITYP =NONE         CCTYP =NONE         VBTYP =NONE    
 DFTTYP=NONE         TDDFT =NONE    
 MULT  =       1     ICHARG=       0     NZVAR =       0     COORD =UNIQUE  
 PP    =NONE         RELWFN=NONE         LOCAL =NONE         NUMGRD=       F
 ISPHER=      -1     NOSYM =       0     MAXIT =      30     UNITS =ANGS    
 PLTORB=       F     MOLPLT=       F     AIMPAC=       F     FRIEND=        
 NPRINT=       7     IREST =       0     GEOM  =INPUT   
 NORMF =       0     NORMP =       0     ITOL  =      20     ICUT  =       9
 INTTYP=BEST         GRDTYP=BEST         QMTTOL= 1.0E-06

     $SYSTEM OPTIONS
     ---------------
  REPLICATED MEMORY=     1000000 WORDS (ON EVERY NODE).
 DISTRIBUTED MEMDDI=           0 MILLION WORDS IN AGGREGATE,
 MEMDDI DISTRIBUTED OVER   1 PROCESSORS IS           0 WORDS/PROCESSOR.
 TOTAL MEMORY REQUESTED ON EACH PROCESSOR=     1000000 WORDS.
 TIMLIM=      525600.00 MINUTES, OR     365.0 DAYS.
 PARALL= F  BALTYP=  DLB     KDIAG=    0  COREFL= F
 MXSEQ2=     300 MXSEQ3=     150  mem10=         0

          ----------------
          PROPERTIES INPUT
          ----------------

     MOMENTS            FIELD           POTENTIAL          DENSITY
 IEMOM =       1   IEFLD =       0   IEPOT =       0   IEDEN =       0
 WHERE =COMASS     WHERE =NUCLEI     WHERE =NUCLEI     WHERE =NUCLEI  
 OUTPUT=BOTH       OUTPUT=BOTH       OUTPUT=BOTH       OUTPUT=BOTH    
 IEMINT=       0   IEFINT=       0                     IEDINT=       0
                                                       MORB  =       0
          EXTRAPOLATION IN EFFECT
          SOSCF IN EFFECT
 ORBITAL PRINTING OPTION: NPREO=     1    60     2     1

     -------------------------------
     INTEGRAL TRANSFORMATION OPTIONS
     -------------------------------
     NWORD  =            0
     CUTOFF = 1.0E-09     MPTRAN =       0
     DIRTRF =       F     AOINTS =DUP     

          ----------------------
          INTEGRAL INPUT OPTIONS
          ----------------------
 NOPK  =       1 NORDER=       0 SCHWRZ=       T

     ------------------------------------------
     THE POINT GROUP IS C1 , NAXIS= 0, ORDER= 1
     ------------------------------------------

     DIMENSIONS OF THE SYMMETRY SUBSPACES ARE
 A   =   60

 ..... DONE SETTING UP THE RUN .....
 STEP CPU TIME =     0.04 TOTAL CPU TIME =          0.0 (      0.0 MIN)
 TOTAL WALL CLOCK TIME=          0.1 SECONDS, CPU UTILIZATION IS    66.67%

          -----------------------------
          INTRINSIC REACTION COORDINATE
          -----------------------------
          PACE   =GS2     
          STRIDE = 0.10000 BOHR*SQRT(AMU)
          NPOINT =     100
          NEXTPT =       0
          STOTAL =  0.0000 BOHR*SQRT(AMU)
          SAB    =  0.0000 BOHR*SQRT(AMU)
          NPRT   =       0
          NPUN   =       0

          SADDLE =       T
          TSENGY =       T
          FORWRD =       F
          EVIB   = 0.00050 HARTREE
          FREQ   =     0.0 CM**-1

          STABLZ =       F
          ELBOW  =  175.00 DEGREES
          DELTA  = 0.02500 BOHR

          READQB =       F
          EB     =        0.0000000000 HARTREES
          GBNORM =        0.0000000000 HARTREES/SQRT(AMU)-BOHR

          GCUT   = 0.0000500 HARTREES/SQRT(AMU)-BOHR
          RCUT   = 0.0005000 BOHR
          ACUT   =    5.00 DEGREES
          MXOPT  =      20
          IHUPD  =       2

 ATOMIC MASSES USED (IN AMU) ARE
     C             12.0000
     C             12.0000
     C             12.0000
     C             12.0000
     C             12.0000
     C             12.0000
     C             12.0000
     C             12.0000
     C             12.0000
     O             15.9949
     H              1.0078
     H              1.0078
     H              1.0078
     H              1.0078
     H              1.0078
     H              1.0078
     H              1.0078
     H              1.0078
     H              1.0078
     H              1.0078

 JUMP AWAY FROM SADDLE POINT WILL BE FOUND FROM THE INPUT HESSIAN MATRIX

 COMPUTING WAVEFUNCTION AT TRANSITION STATE...

          ********************
          1 ELECTRON INTEGRALS
          ********************
 ...... END OF ONE-ELECTRON INTEGRALS ......
 STEP CPU TIME =     0.03 TOTAL CPU TIME =          0.1 (      0.0 MIN)
 TOTAL WALL CLOCK TIME=          0.1 SECONDS, CPU UTILIZATION IS    77.78%

          -------------
          GUESS OPTIONS
          -------------
          GUESS =HUCKEL            NORB  =       0          NORDER=       0
          MIX   =       F          PRTMO =       F          PUNMO =       F
          TOLZ  = 1.0E-08          TOLE  = 1.0E-05
          SYMDEN=       F          PURIFY=       F

 INITIAL GUESS ORBITALS GENERATED BY HUCKEL   ROUTINE.
 HUCKEL GUESS REQUIRES     53820 WORDS.

 SYMMETRIES FOR INITIAL GUESS ORBITALS FOLLOW.   BOTH SET(S).
    36 ORBITALS ARE OCCUPIED (   10 CORE ORBITALS).
    11=A       12=A       13=A       14=A       15=A       16=A       17=A   
    18=A       19=A       20=A       21=A       22=A       23=A       24=A   
    25=A       26=A       27=A       28=A       29=A       30=A       31=A   
    32=A       33=A       34=A       35=A       36=A       37=A       38=A   
    39=A       40=A       41=A       42=A       43=A       44=A       45=A   
    46=A   
 ...... END OF INITIAL ORBITAL SELECTION ......
 STEP CPU TIME =     0.02 TOTAL CPU TIME =          0.1 (      0.0 MIN)
 TOTAL WALL CLOCK TIME=          0.1 SECONDS, CPU UTILIZATION IS    75.00%

                    ----------------------
                    AO INTEGRAL TECHNOLOGY
                    ----------------------
     S,P,L SHELL ROTATED AXIS INTEGRALS, REPROGRAMMED BY
        KAZUYA ISHIMURA (IMS) AND JOSE SIERRA (SYNSTAR).
     S,P,D,L SHELL ROTATED AXIS INTEGRALS PROGRAMMED BY
        KAZUYA ISHIMURA (INSTITUTE FOR MOLECULAR SCIENCE).
     S,P,D,F,G SHELL TO TOTAL QUARTET ANGULAR MOMENTUM SUM 5,
        ERIC PROGRAM BY GRAHAM FLETCHER (ELORET AND NASA ADVANCED
        SUPERCOMPUTING DIVISION, AMES RESEARCH CENTER).
     S,P,D,F,G,L SHELL GENERAL RYS QUADRATURE PROGRAMMED BY
        MICHEL DUPUIS (PACIFIC NORTHWEST NATIONAL LABORATORY).

          --------------------
          2 ELECTRON INTEGRALS
          --------------------

 THE -PK- OPTION IS OFF, THE INTEGRALS ARE NOT IN SUPERMATRIX FORM.
 STORING   15000 INTEGRALS/RECORD ON DISK, USING 12 BYTES/INTEGRAL.
 TWO ELECTRON INTEGRAL EVALUATION REQUIRES   89821 WORDS OF MEMORY.
 SCHWARZ INEQUALITY OVERHEAD:      1797 INTEGRALS, T=        0.01
 II,JST,KST,LST =  1  1  1  1 NREC =         1 INTLOC =    1
 II,JST,KST,LST =  2  1  1  1 NREC =         1 INTLOC =    2
 II,JST,KST,LST =  3  1  1  1 NREC =         1 INTLOC =   34
 II,JST,KST,LST =  4  1  1  1 NREC =         1 INTLOC =  144
 II,JST,KST,LST =  5  1  1  1 NREC =         1 INTLOC = 1366
 II,JST,KST,LST =  6  1  1  1 NREC =         1 INTLOC = 1964
 II,JST,KST,LST =  7  1  1  1 NREC =         1 INTLOC = 6864
 II,JST,KST,LST =  8  1  1  1 NREC =         1 INTLOC = 8483
 II,JST,KST,LST =  9  1  1  1 NREC =         2 INTLOC = 5911
 II,JST,KST,LST = 10  1  1  1 NREC =         2 INTLOC = 9715
 II,JST,KST,LST = 11  1  1  1 NREC =         4 INTLOC = 5092
 II,JST,KST,LST = 12  1  1  1 NREC =         4 INTLOC =12204
 II,JST,KST,LST = 13  1  1  1 NREC =         7 INTLOC =12345
 II,JST,KST,LST = 14  1  1  1 NREC =         8 INTLOC = 8865
 II,JST,KST,LST = 15  1  1  1 NREC =        13 INTLOC = 6438
 II,JST,KST,LST = 16  1  1  1 NREC =        14 INTLOC = 9104
 II,JST,KST,LST = 17  1  1  1 NREC =        21 INTLOC =13282
 II,JST,KST,LST = 18  1  1  1 NREC =        23 INTLOC = 9183
 II,JST,KST,LST = 19  1  1  1 NREC =        34 INTLOC = 1702
 II,JST,KST,LST = 20  1  1  1 NREC =        35 INTLOC =11861
 II,JST,KST,LST = 21  1  1  1 NREC =        47 INTLOC =13793
 II,JST,KST,LST = 22  1  1  1 NREC =        51 INTLOC = 9696
 II,JST,KST,LST = 23  1  1  1 NREC =        55 INTLOC =14094
 II,JST,KST,LST = 24  1  1  1 NREC =        60 INTLOC = 3153
 II,JST,KST,LST = 25  1  1  1 NREC =        65 INTLOC = 2113
 II,JST,KST,LST = 26  1  1  1 NREC =        70 INTLOC = 2973
 II,JST,KST,LST = 27  1  1  1 NREC =        75 INTLOC = 9896
 II,JST,KST,LST = 28  1  1  1 NREC =        81 INTLOC = 5228
 II,JST,KST,LST = 29  1  1  1 NREC =        87 INTLOC = 2921
 II,JST,KST,LST = 30  1  1  1 NREC =        93 INTLOC = 5617
 SCHWARZ INEQUALITY TEST SKIPPED       24050 INTEGRAL BLOCKS.
 TOTAL NUMBER OF NONZERO TWO-ELECTRON INTEGRALS =             1483612
         99 INTEGRAL RECORDS WERE STORED ON DISK FILE  8.
  ...... END OF TWO-ELECTRON INTEGRALS .....
 STEP CPU TIME =     0.39 TOTAL CPU TIME =          0.5 (      0.0 MIN)
 TOTAL WALL CLOCK TIME=          0.5 SECONDS, CPU UTILIZATION IS    90.57%

          --------------------------
                 RHF SCF CALCULATION
          --------------------------

     NUCLEAR ENERGY =       511.4280709981
     MAXIT =   30     NPUNCH=    2
     EXTRAP=T  DAMP=F  SHIFT=F  RSTRCT=F  DIIS=F  DEM=F  SOSCF=T
     DENSITY MATRIX CONV=  1.00E-05
     SOSCF WILL OPTIMIZE     864 ORBITAL ROTATIONS, SOGTOL=   0.250
     MEMORY REQUIRED FOR RHF ITERS=     59496 WORDS.

 ITER EX DEM     TOTAL ENERGY        E CHANGE  DENSITY CHANGE     ORB. GRAD
   1  0  0     -415.5142758908  -415.5142758908   0.525858883   0.000000000
          ---------------START SECOND ORDER SCF---------------
   2  1  0     -416.0270648537    -0.5127889629   0.302771264   0.066086527
   3  2  0     -416.0575232713    -0.0304584176   0.141993215   0.049838320
   4  3  0     -416.0929944074    -0.0354711361   0.029420382   0.007795928
   5  4  0     -416.0939323520    -0.0009379446   0.006860183   0.003107885
   6  5  0     -416.0940491717    -0.0001168197   0.002273340   0.000765408
   7  6  0     -416.0940624307    -0.0000132590   0.000765058   0.000260805
   8  7  0     -416.0940643933    -0.0000019626   0.000249461   0.000072936
   9  8  0     -416.0940645961    -0.0000002028   0.000144795   0.000030753
  10  9  0     -416.0940646366    -0.0000000405   0.000097659   0.000016899
  11 10  0     -416.0940646434    -0.0000000068   0.000028419   0.000004080
  12 11  0     -416.0940646447    -0.0000000013   0.000011249   0.000001594
  13 12  0     -416.0940646449    -0.0000000002   0.000004226   0.000000697
  14 13  0     -416.0940646449    -0.0000000000   0.000001178   0.000000249

          -----------------
          DENSITY CONVERGED
          -----------------
     TIME TO FORM FOCK OPERATORS=       0.3 SECONDS (       0.0 SEC/ITER)
     TIME TO SOLVE SCF EQUATIONS=       0.1 SECONDS (       0.0 SEC/ITER)

 FINAL RHF ENERGY IS     -416.0940646449 AFTER  14 ITERATIONS

          ------------
          EIGENVECTORS
          ------------

                      1          2          3          4          5
                  -20.2645   -11.1197   -11.0567   -11.0499   -11.0469
                     A          A          A          A          A   
    1  C  1  S   -0.000000   0.000023  -0.026121  -0.005784   0.004812
    2  C  1  S    0.000003  -0.000004  -0.004001   0.000031   0.000147
    3  C  1  X    0.000000   0.000010  -0.002577  -0.000249  -0.000029
    4  C  1  Y   -0.000003   0.000011   0.000025  -0.000076   0.000005
    5  C  1  Z    0.000000  -0.000006  -0.000855  -0.000162  -0.000021
    6  C  2  S   -0.000001   0.000011  -0.000490   0.000060  -0.001582
    7  C  2  S    0.000012  -0.000036   0.000325   0.000058   0.002288
    8  C  2  X   -0.000001   0.000033   0.000153   0.000052   0.000466
    9  C  2  Y    0.000007  -0.000035  -0.000103   0.000025   0.001454
   10  C  2  Z    0.000008  -0.000045  -0.000124  -0.000023   0.000374
   11  C  3  S   -0.000005  -0.000235  -0.000703   0.000850  -0.320667
   12  C  3  S   -0.000002   0.000319  -0.000025   0.000065  -0.014609
   13  C  3  X    0.000038  -0.000247  -0.000060   0.000018  -0.002031
   14  C  3  Y    0.000025   0.000018   0.000052   0.000026   0.000339
   15  C  3  Z    0.000014  -0.000112   0.000040   0.000008  -0.000648
   16  C  4  S   -0.000024  -0.001691  -0.004271  -0.008198   0.938514
   17  C  4  S    0.000270  -0.005340  -0.000085  -0.000325   0.035016
   18  C  4  X    0.000045  -0.001879   0.000028  -0.000055   0.000577
   19  C  4  Y    0.000432  -0.002509   0.000054   0.000057  -0.000707
   20  C  4  Z    0.000190   0.002503   0.000199   0.000153   0.000017
   21  C  5  S    0.000003  -0.000284   0.003096  -0.001096   0.004058
   22  C  5  S    0.000030   0.000056  -0.006845   0.000031  -0.006583
   23  C  5  X   -0.000051  -0.000039  -0.000033  -0.000102   0.001006
   24  C  5  Y   -0.000003  -0.000017   0.001961  -0.000021  -0.004227
   25  C  5  Z    0.000050   0.000021   0.004121   0.000102  -0.000292
   26  C  6  S    0.000003  -0.000243   0.991558   0.018901   0.004178
   27  C  6  S    0.000006  -0.000053   0.036316  -0.004975   0.000158
   28  C  6  X    0.000009  -0.000032   0.001360  -0.001816   0.000068
   29  C  6  Y   -0.000039  -0.000095   0.000538  -0.002406  -0.000185
   30  C  6  Z   -0.000006   0.000019   0.000805   0.002823   0.000045
   31  C  7  S    0.000005  -0.000271  -0.018101   0.991816   0.008062
   32  C  7  S    0.000054   0.000108  -0.006636   0.035849   0.000220
   33  C  7  X    0.000034  -0.000041   0.001683   0.000163   0.000075
   34  C  7  Y    0.000033  -0.000014   0.002358   0.001681  -0.000067
   35  C  7  Z   -0.000061   0.000077  -0.003206   0.000121  -0.000131
   36  C  8  S   -0.000025  -0.001006  -0.000980   0.020136  -0.001147
   37  C  8  S    0.000269  -0.005677   0.000303  -0.007398   0.000014
   38  C  8  X    0.000133   0.001134  -0.000034   0.000616   0.000057
   39  C  8  Y    0.000494  -0.002106  -0.000128   0.004496   0.000032
   40  C  8  Z   -0.000050  -0.003354   0.000112   0.000529   0.000002
   41  C  9  S    0.000547   0.992569   0.000254   0.000332   0.002457
   42  C  9  S   -0.007208   0.032683  -0.000002   0.000161  -0.005396
   43  C  9  X   -0.000893   0.000041   0.000006   0.000021   0.001676
   44  C  9  Y   -0.006249   0.000448   0.000115   0.000148   0.002347
   45  C  9  Z   -0.000991  -0.000120   0.000079   0.000011  -0.002788
   46  O 10  S    0.994266   0.000160   0.000005   0.000013  -0.000018
   47  O 10  S    0.026004  -0.005797  -0.000052  -0.000116   0.000222
   48  O 10  X   -0.000794   0.000243   0.000004   0.000002  -0.000065
   49  O 10  Y   -0.005496   0.001679   0.000034   0.000060  -0.000138
   50  O 10  Z   -0.000879   0.000290  -0.000002   0.000026   0.000156
   51  H 11  S   -0.000002   0.000002   0.000336  -0.000018  -0.000017
   52  H 12  S   -0.000002   0.000008   0.000336  -0.000975  -0.000033
   53  H 13  S   -0.000002   0.000007  -0.000001   0.000001  -0.000018
   54  H 14  S    0.000085  -0.001088   0.000005  -0.000049   0.002393
   55  H 15  S   -0.000007  -0.000036  -0.000022  -0.000016   0.002375
   56  H 16  S   -0.000178  -0.000019  -0.000094  -0.000002  -0.006631
   57  H 17  S   -0.000020  -0.000055   0.000086  -0.000084   0.000075
   58  H 18  S   -0.000015  -0.000024  -0.006942  -0.000096  -0.000141
   59  H 19  S   -0.000022  -0.000038   0.000207  -0.006826  -0.000109
   60  H 20  S   -0.000191   0.000013  -0.000034   0.000010  -0.000063

                      6          7          8          9         10
                  -11.0460   -11.0458   -11.0267   -11.0150   -11.0080
                     A          A          A          A          A   
    1  C  1  S   -0.198893   0.971632  -0.000210   0.000876  -0.002489
    2  C  1  S   -0.007158   0.035470   0.000043   0.000284  -0.007132
    3  C  1  X    0.000213  -0.001504   0.000010  -0.000055   0.002252
    4  C  1  Y   -0.000226   0.000436   0.000002   0.000027  -0.002415
    5  C  1  Z    0.000024  -0.000224  -0.000050  -0.000078  -0.003259
    6  C  2  S    0.002295   0.003832   0.000073  -0.016897   0.991973
    7  C  2  S   -0.004910  -0.007954   0.000026  -0.001097   0.036619
    8  C  2  X   -0.000720  -0.002429   0.000007  -0.000634   0.002587
    9  C  2  Y   -0.004371   0.001537  -0.000002   0.000092  -0.000083
   10  C  2  Z   -0.001554   0.002872   0.000006  -0.000298   0.000752
   11  C  3  S    0.919504   0.189867  -0.000272   0.000795  -0.002568
   12  C  3  S    0.032637   0.006866   0.000092   0.000295  -0.007150
   13  C  3  X   -0.001986  -0.000508  -0.000001  -0.000055   0.001273
   14  C  3  Y   -0.000236   0.000006   0.000078   0.000028   0.004353
   15  C  3  Z   -0.000999  -0.000108  -0.000032  -0.000031   0.000987
   16  C  4  S    0.315959   0.059874   0.001348  -0.003259   0.000512
   17  C  4  S    0.008671   0.001616   0.000232  -0.007194   0.000038
   18  C  4  X    0.002880   0.000614   0.000043  -0.001017   0.000019
   19  C  4  Y   -0.000369  -0.000065   0.000034   0.004486   0.000161
   20  C  4  Z    0.000939   0.000246   0.000047   0.000220   0.000022
   21  C  5  S    0.000770  -0.000593  -0.002719   0.991965   0.017130
   22  C  5  S   -0.002076  -0.000477  -0.000213   0.036580   0.000147
   23  C  5  X    0.000288   0.000039  -0.000082  -0.002217   0.000606
   24  C  5  Y   -0.001326  -0.000234  -0.000132   0.000515   0.000010
   25  C  5  Z   -0.000112  -0.000005   0.000164  -0.001240   0.000131
   26  C  6  S   -0.003362   0.027025   0.000634  -0.002284   0.000391
   27  C  6  S    0.000489  -0.001985   0.000394  -0.007128   0.000042
   28  C  6  X   -0.000455   0.002637   0.000107   0.000048   0.000043
   29  C  6  Y   -0.000120  -0.000077   0.000002  -0.001878  -0.000093
   30  C  6  Z   -0.000138   0.000782  -0.000128  -0.004196  -0.000119
   31  C  7  S    0.000726   0.005545  -0.019610   0.001154  -0.000068
   32  C  7  S    0.000015   0.000180  -0.008948   0.000136   0.000008
   33  C  7  X    0.000032  -0.000020  -0.000653  -0.000074  -0.000037
   34  C  7  Y   -0.000030  -0.000006  -0.004633  -0.000101   0.000031
   35  C  7  Z   -0.000026  -0.000076  -0.000533  -0.000143  -0.000004
   36  C  8  S   -0.000202   0.000256   0.991965   0.002810  -0.000032
   37  C  8  S    0.000063   0.000027   0.036555   0.000039  -0.000015
   38  C  8  X   -0.000024  -0.000023  -0.000264   0.000006  -0.000001
   39  C  8  Y    0.000028   0.000004  -0.001900   0.000103   0.000004
   40  C  8  Z   -0.000002  -0.000010  -0.000033  -0.000175  -0.000002
   41  C  9  S    0.001097   0.000193   0.001995   0.000354  -0.000008
   42  C  9  S   -0.001660  -0.000300  -0.005871   0.000110  -0.000015
   43  C  9  X    0.000519   0.000091  -0.001250  -0.000113  -0.000024
   44  C  9  Y    0.000763   0.000143   0.001994   0.000135  -0.000015
   45  C  9  Z   -0.000896  -0.000167   0.003465   0.000024  -0.000045
   46  O 10  S   -0.000014  -0.000002  -0.000022   0.000008  -0.000000
   47  O 10  S    0.000105   0.000017   0.000248  -0.000084   0.000008
   48  O 10  X   -0.000058  -0.000013   0.000062   0.000037   0.000006
   49  O 10  Y   -0.000059  -0.000008  -0.000118   0.000036  -0.000006
   50  O 10  Z    0.000049   0.000007  -0.000179   0.000002   0.000002
   51  H 11  S    0.001283  -0.006815  -0.000010  -0.000030   0.000098
   52  H 12  S    0.001372  -0.006827  -0.000093  -0.000065  -0.000011
   53  H 13  S    0.000034   0.000064  -0.000004   0.000130  -0.007015
   54  H 14  S   -0.006402  -0.001366  -0.000219  -0.000047  -0.000003
   55  H 15  S   -0.006352  -0.001425  -0.000019  -0.000042   0.000096
   56  H 16  S   -0.002072  -0.000411  -0.000098   0.000108  -0.000034
   57  H 17  S    0.000028   0.000006  -0.000042  -0.006928  -0.000106
   58  H 18  S   -0.000069  -0.000066  -0.000092   0.000097  -0.000047
   59  H 19  S   -0.000034   0.000003   0.000270  -0.000106  -0.000002
   60  H 20  S   -0.000024  -0.000008  -0.006866  -0.000079   0.000001

                     11         12         13         14         15
                   -1.3155    -1.0943    -1.0174    -0.9712    -0.9379
                     A          A          A          A          A   
    1  C  1  S   -0.000755  -0.059789  -0.097209   0.080168  -0.074558
    2  C  1  S    0.001830   0.158772   0.262378  -0.221553   0.213982
    3  C  1  X    0.000257   0.007211  -0.047674   0.028329   0.027440
    4  C  1  Y    0.000405   0.019837   0.041550  -0.022771  -0.017739
    5  C  1  Z    0.000298   0.021830   0.046668  -0.011861  -0.004384
    6  C  2  S   -0.001089  -0.059953  -0.141194   0.073242   0.017151
    7  C  2  S    0.002398   0.149291   0.366208  -0.194294  -0.046112
    8  C  2  X    0.000841   0.034323   0.055078  -0.023275   0.009012
    9  C  2  Y    0.000719   0.007862   0.024717   0.016543  -0.083008
   10  C  2  Z    0.000141  -0.008356  -0.012886   0.029015  -0.046240
   11  C  3  S   -0.003421  -0.054250  -0.113337   0.017272   0.095705
   12  C  3  S    0.008301   0.143965   0.306967  -0.043924  -0.271857
   13  C  3  X    0.002801   0.010224  -0.023293   0.039962  -0.003339
   14  C  3  Y    0.000755  -0.027804  -0.065811   0.035067  -0.004613
   15  C  3  Z   -0.000330  -0.006823  -0.021550   0.026132  -0.000685
   16  C  4  S   -0.021303  -0.088122  -0.014260  -0.130110   0.075472
   17  C  4  S    0.053390   0.231616   0.041435   0.361129  -0.217578
   18  C  4  X    0.012684   0.014845  -0.033853   0.034978   0.003423
   19  C  4  Y    0.016058  -0.046209  -0.000838  -0.063205  -0.055382
   20  C  4  Z   -0.017565  -0.026734   0.007068   0.006884   0.023694
   21  C  5  S   -0.005510  -0.106521   0.005210  -0.125185  -0.055111
   22  C  5  S    0.012542   0.267440  -0.013596   0.334630   0.150083
   23  C  5  X   -0.000775  -0.019795  -0.017955  -0.027542   0.002996
   24  C  5  Y    0.005497   0.026173   0.007853   0.066590  -0.093779
   25  C  5  Z   -0.001794  -0.057385   0.018794   0.000698  -0.071657
   26  C  6  S   -0.003185  -0.112356   0.030822  -0.014436  -0.131476
   27  C  6  S    0.007597   0.296679  -0.082969   0.035708   0.373976
   28  C  6  X    0.000708   0.009509  -0.046757  -0.001079  -0.001660
   29  C  6  Y    0.002726   0.051500  -0.026629   0.009188  -0.013595
   30  C  6  Z    0.000538   0.018215   0.022999   0.106359   0.028235
   31  C  7  S   -0.005954  -0.101257   0.101127   0.099191  -0.000332
   32  C  7  S    0.014149   0.257810  -0.266160  -0.267076   0.004694
   33  C  7  X    0.000048  -0.017845  -0.009310  -0.011330  -0.041233
   34  C  7  Y    0.006330   0.026634  -0.060615  -0.066891  -0.121250
   35  C  7  Z    0.002392   0.043879  -0.017005   0.016223   0.036500
   36  C  8  S   -0.021556  -0.079545   0.099511   0.095196   0.091772
   37  C  8  S    0.052420   0.199606  -0.258320  -0.252525  -0.248487
   38  C  8  X   -0.008542  -0.019415   0.010801   0.003879   0.012586
   39  C  8  Y    0.012218  -0.056811   0.063611   0.066100  -0.005216
   40  C  8  Z    0.023153   0.016007  -0.003655   0.027320  -0.024812
   41  C  9  S   -0.127526  -0.035240   0.023030  -0.013451   0.067230
   42  C  9  S    0.295209   0.097809  -0.066228   0.038138  -0.198403
   43  C  9  X    0.020639  -0.015927  -0.020223  -0.044832   0.023450
   44  C  9  Y    0.150549  -0.088605   0.043103  -0.033806   0.113439
   45  C  9  Z    0.023876  -0.011325   0.046842   0.087503   0.023690
   46  O 10  S   -0.214565   0.037890  -0.015668   0.010108  -0.047852
   47  O 10  S    0.749550  -0.141359   0.060119  -0.039616   0.191031
   48  O 10  X   -0.023890   0.000140  -0.006456  -0.010566   0.006617
   49  O 10  Y   -0.162718   0.006518   0.001688  -0.005528   0.021901
   50  O 10  Z   -0.026171   0.002077   0.008992   0.023242   0.003968
   51  H 11  S    0.000194   0.030071   0.057136  -0.056162   0.068438
   52  H 12  S    0.000434   0.038721   0.056039  -0.065721   0.062405
   53  H 13  S    0.000317   0.029481   0.083919  -0.047169  -0.011490
   54  H 14  S    0.003555   0.033581   0.070853  -0.010575  -0.085024
   55  H 15  S    0.001358   0.026504   0.067949  -0.005375  -0.080714
   56  H 16  S    0.008757   0.040205   0.014601   0.093312  -0.063524
   57  H 17  S    0.001499   0.049773   0.001790   0.086022   0.045334
   58  H 18  S    0.000807   0.055401  -0.016422   0.003985   0.117757
   59  H 19  S    0.001597   0.048258  -0.060382  -0.074624   0.007678
   60  H 20  S    0.008698   0.034039  -0.057383  -0.068560  -0.068001

                     16         17         18         19         20
                   -0.8528    -0.7758    -0.7541    -0.7087    -0.6569
                     A          A          A          A          A   
    1  C  1  S   -0.130132   0.038297  -0.006717   0.067447  -0.005559
    2  C  1  S    0.379007  -0.119068   0.025570  -0.216389   0.016783
    3  C  1  X   -0.053014  -0.042191   0.059082  -0.055984   0.009293
    4  C  1  Y   -0.018363   0.025401  -0.024285   0.052810   0.148649
    5  C  1  Z   -0.019941   0.092371  -0.039322   0.176768  -0.032462
    6  C  2  S   -0.001250  -0.060877   0.046748  -0.113921   0.006814
    7  C  2  S    0.003532   0.181717  -0.141534   0.352213  -0.024259
    8  C  2  X    0.022619  -0.015575   0.013844  -0.048432   0.070999
    9  C  2  Y   -0.158651  -0.006729   0.045620  -0.077308   0.070664
   10  C  2  Z   -0.099763   0.043413  -0.022568   0.112075  -0.103191
   11  C  3  S    0.129194   0.014830  -0.038389   0.066097  -0.002731
   12  C  3  S   -0.376311  -0.050288   0.118690  -0.212442   0.007782
   13  C  3  X    0.053874  -0.050003   0.008647  -0.024766   0.040292
   14  C  3  Y   -0.015406  -0.087904   0.084647  -0.183950  -0.032480
   15  C  3  Z   -0.001721  -0.009156  -0.036087   0.018246  -0.131174
   16  C  4  S   -0.062797   0.079643   0.045084  -0.015115   0.028327
   17  C  4  S    0.182727  -0.247587  -0.133450   0.048690  -0.097463
   18  C  4  X    0.071118   0.001406   0.010269   0.073615   0.034354
   19  C  4  Y    0.019431  -0.146402   0.122930   0.086899  -0.138884
   20  C  4  Z   -0.008229  -0.019893  -0.145304  -0.063467  -0.176452
   21  C  5  S    0.006467  -0.098101   0.054275   0.048531  -0.027107
   22  C  5  S   -0.018632   0.291437  -0.164894  -0.148970   0.082675
   23  C  5  X   -0.009442  -0.013870   0.036172   0.049868  -0.002630
   24  C  5  Y    0.080145  -0.096862  -0.087259   0.037395   0.101131
   25  C  5  Z    0.049224   0.002650  -0.139501  -0.085224  -0.119555
   26  C  6  S    0.072489   0.009500  -0.083705  -0.031688   0.033426
   27  C  6  S   -0.211205  -0.034352   0.259016   0.099287  -0.112012
   28  C  6  X   -0.069314  -0.025521   0.001417   0.073569  -0.022454
   29  C  6  Y    0.002009   0.010189  -0.066471   0.018093   0.289713
   30  C  6  Z    0.004387   0.196771   0.012161  -0.057572   0.030995
   31  C  7  S    0.055335   0.076690   0.085748  -0.021682  -0.025875
   32  C  7  S   -0.161034  -0.233632  -0.254366   0.069390   0.079225
   33  C  7  X    0.005680   0.031192  -0.074546  -0.016762  -0.064300
   34  C  7  Y    0.069329   0.133628  -0.061774  -0.086960   0.086778
   35  C  7  Z   -0.012535   0.030143   0.131708   0.067088   0.120525
   36  C  8  S   -0.038564  -0.086307  -0.005599   0.042307   0.032393
   37  C  8  S    0.111447   0.256106   0.028473  -0.127768  -0.113666
   38  C  8  X   -0.010586   0.027137  -0.047854  -0.034435  -0.100710
   39  C  8  Y    0.061712   0.106730   0.172211  -0.030335  -0.163896
   40  C  8  Z    0.044753   0.006728   0.158452   0.105248   0.107764
   41  C  9  S   -0.065259   0.002658  -0.105850  -0.054146   0.013873
   42  C  9  S    0.199464  -0.008877   0.338965   0.176496  -0.044221
   43  C  9  X   -0.003618   0.104717  -0.005156  -0.020577  -0.026369
   44  C  9  Y   -0.095632   0.014624  -0.097792  -0.065045  -0.052359
   45  C  9  Z   -0.004623  -0.183346  -0.090359   0.080102  -0.002272
   46  O 10  S    0.037838  -0.003275   0.058198   0.024422  -0.028801
   47  O 10  S   -0.157351   0.014501  -0.255813  -0.109883   0.137699
   48  O 10  X   -0.000216   0.052786  -0.010410  -0.017144  -0.000056
   49  O 10  Y   -0.039621   0.012008  -0.104427  -0.069765   0.082185
   50  O 10  Z   -0.002847  -0.091489  -0.055886   0.043397   0.017067
   51  H 11  S    0.141850  -0.057279   0.018814  -0.120707  -0.100712
   52  H 12  S    0.120696  -0.096646   0.026155  -0.177677   0.081182
   53  H 13  S    0.001056   0.092540  -0.082345   0.232617  -0.113181
   54  H 14  S   -0.117783  -0.053209   0.103422  -0.168121   0.070820
   55  H 15  S   -0.140828  -0.033678   0.046986  -0.121412  -0.095298
   56  H 16  S    0.055507  -0.135691  -0.101654  -0.001648  -0.195210
   57  H 17  S   -0.009155   0.145641  -0.103333  -0.121320  -0.072765
   58  H 18  S   -0.078004  -0.030862   0.137710   0.037898  -0.258234
   59  H 19  S   -0.065380  -0.135384  -0.160709   0.015154  -0.077881
   60  H 20  S    0.036220   0.135710  -0.013970  -0.121233  -0.192897

                     21         22         23         24         25
                   -0.6044    -0.5931    -0.5874    -0.5544    -0.5396
                     A          A          A          A          A   
    1  C  1  S    0.014347  -0.009295  -0.000330  -0.000458   0.005143
    2  C  1  S   -0.051367   0.027002  -0.003430   0.001105  -0.025364
    3  C  1  X    0.020809  -0.087329  -0.079568  -0.051859  -0.126650
    4  C  1  Y    0.265124  -0.143535   0.005968  -0.181855  -0.063011
    5  C  1  Z    0.015740  -0.040289   0.161014   0.164776   0.204412
    6  C  2  S   -0.025570   0.007268  -0.006321   0.015829  -0.008130
    7  C  2  S    0.079330  -0.020346   0.019594  -0.052391   0.026669
    8  C  2  X    0.125466  -0.112581   0.054350   0.016243   0.031124
    9  C  2  Y    0.121254  -0.072033  -0.086619  -0.141968  -0.137911
   10  C  2  Z   -0.149595   0.029780  -0.111322   0.012651  -0.123238
   11  C  3  S    0.012196  -0.010650   0.006181  -0.004926   0.001788
   12  C  3  S   -0.044393   0.034168  -0.017667   0.026085  -0.001959
   13  C  3  X    0.081797  -0.070988   0.103456   0.114120   0.122600
   14  C  3  Y   -0.135760   0.137489   0.086545   0.117579   0.140193
   15  C  3  Z   -0.236725   0.018292  -0.154847  -0.042210  -0.208512
   16  C  4  S    0.003282   0.055951   0.007920  -0.020212  -0.010097
   17  C  4  S   -0.008519  -0.189979  -0.022685   0.070439   0.034367
   18  C  4  X    0.012273   0.078257  -0.001217  -0.019223  -0.046271
   19  C  4  Y    0.006097   0.022192   0.222440  -0.177813  -0.033734
   20  C  4  Z   -0.009485  -0.128595  -0.084933  -0.208693   0.137484
   21  C  5  S   -0.011578  -0.056423   0.003916  -0.010003   0.017208
   22  C  5  S    0.041098   0.192157  -0.011996   0.028347  -0.056226
   23  C  5  X   -0.017021   0.037709   0.027560  -0.057647  -0.001777
   24  C  5  Y   -0.044231  -0.151510  -0.202415   0.197787   0.022039
   25  C  5  Z    0.113017   0.158251  -0.093951  -0.192050   0.199440
   26  C  6  S    0.009892   0.054734  -0.011219   0.001547   0.007198
   27  C  6  S   -0.032777  -0.191850   0.034569  -0.007333  -0.021435
   28  C  6  X    0.002994   0.039340  -0.028167  -0.050488   0.080455
   29  C  6  Y   -0.088127   0.022216  -0.082779   0.067476  -0.113027
   30  C  6  Z   -0.039614   0.047750   0.216422   0.046661  -0.156476
   31  C  7  S   -0.003681  -0.045459   0.009941   0.006528  -0.018368
   32  C  7  S    0.024329   0.151367  -0.052175  -0.011443   0.061760
   33  C  7  X    0.028947   0.067509   0.086971   0.053335  -0.023834
   34  C  7  Y   -0.193743  -0.052652   0.243293  -0.198997  -0.011402
   35  C  7  Z   -0.190198  -0.126463  -0.033217  -0.189933   0.110958
   36  C  8  S    0.020896   0.045760  -0.022468   0.020221  -0.004383
   37  C  8  S   -0.055362  -0.151605   0.062448  -0.058493   0.013161
   38  C  8  X    0.033992  -0.073918   0.037916   0.080374  -0.102900
   39  C  8  Y    0.166781  -0.091997  -0.189646   0.194518  -0.042107
   40  C  8  Z   -0.045435   0.137543  -0.161902  -0.115234   0.196664
   41  C  9  S   -0.042806  -0.080185   0.012341   0.009093   0.022759
   42  C  9  S    0.146934   0.279856  -0.039793  -0.029269  -0.077331
   43  C  9  X    0.000728  -0.013161  -0.184663  -0.058067   0.036586
   44  C  9  Y    0.067557   0.026269  -0.010547  -0.009600  -0.092781
   45  C  9  Z   -0.016058   0.036069   0.254698  -0.038372  -0.233944
   46  O 10  S    0.041037   0.049816  -0.005352  -0.009102  -0.034293
   47  O 10  S   -0.202003  -0.245453   0.026144   0.046543   0.178356
   48  O 10  X   -0.019926  -0.054298  -0.160223  -0.006872   0.087252
   49  O 10  Y   -0.164404  -0.234182   0.012190   0.065275   0.230156
   50  O 10  Z   -0.061870  -0.004084   0.249708  -0.074768  -0.175591
   51  H 11  S   -0.228604   0.143346  -0.000778   0.148336   0.056415
   52  H 12  S    0.071980  -0.018395  -0.130195  -0.198083  -0.208062
   53  H 13  S   -0.140119   0.081044  -0.039073   0.035060  -0.012444
   54  H 14  S    0.077711   0.066922   0.151178   0.117937   0.235389
   55  H 15  S   -0.238585   0.098258  -0.109504  -0.022780  -0.131330
   56  H 16  S   -0.019351  -0.176617   0.001109  -0.190816   0.112336
   57  H 17  S    0.107550   0.259225   0.024433  -0.208425   0.101308
   58  H 18  S    0.051618  -0.096137   0.063772  -0.063451   0.112452
   59  H 19  S    0.212432   0.194938  -0.074827   0.223261  -0.051572
   60  H 20  S    0.075962  -0.217881   0.049151   0.160321  -0.169707

                     26         27         28         29         30
                   -0.5170    -0.5079    -0.4880    -0.4776    -0.4470
                     A          A          A          A          A   
    1  C  1  S    0.009321  -0.009038   0.008097  -0.029637   0.009781
    2  C  1  S   -0.036835   0.019967  -0.031962   0.103541  -0.036557
    3  C  1  X   -0.037065  -0.210325   0.012289  -0.065093  -0.013555
    4  C  1  Y   -0.076888   0.094289   0.239672   0.194375  -0.171018
    5  C  1  Z   -0.202099   0.009637  -0.121210   0.197142  -0.139657
    6  C  2  S   -0.013598  -0.015963  -0.008846   0.005976  -0.003195
    7  C  2  S    0.048230   0.057050   0.037339  -0.026263   0.011732
    8  C  2  X   -0.114431  -0.097736  -0.174728   0.192699  -0.051402
    9  C  2  Y    0.183059  -0.079900  -0.250361  -0.076562   0.180254
   10  C  2  Z    0.032987  -0.212631   0.052730  -0.208317   0.091782
   11  C  3  S   -0.009418   0.000528   0.032607  -0.001519  -0.005690
   12  C  3  S    0.023560  -0.009689  -0.113518   0.009980   0.018338
   13  C  3  X   -0.113207  -0.144400   0.025725  -0.051639   0.021107
   14  C  3  Y   -0.110662   0.207668   0.251656   0.037591  -0.175025
   15  C  3  Z   -0.127689  -0.083815   0.040775   0.301941  -0.126236
   16  C  4  S   -0.009656   0.008684   0.001915   0.001190   0.000428
   17  C  4  S    0.027115  -0.042887  -0.006925   0.002794   0.006553
   18  C  4  X    0.218947   0.178669   0.001635  -0.013776  -0.071200
   19  C  4  Y   -0.063086   0.013385   0.129098   0.085897   0.270281
   20  C  4  Z   -0.166043   0.169576  -0.052160  -0.054843   0.148819
   21  C  5  S   -0.010413  -0.020067  -0.006981   0.006902  -0.001644
   22  C  5  S    0.038525   0.070437   0.027095  -0.024169   0.005120
   23  C  5  X    0.119527   0.207735   0.032187  -0.011655   0.074666
   24  C  5  Y    0.103907   0.057487  -0.114965  -0.100680  -0.262567
   25  C  5  Z    0.074326  -0.111081   0.027379  -0.065775  -0.235121
   26  C  6  S    0.019110  -0.011949  -0.005473   0.010886  -0.004893
   27  C  6  S   -0.074954   0.033716   0.016977  -0.042293   0.006414
   28  C  6  X    0.122863   0.223202   0.031079  -0.055378   0.025123
   29  C  6  Y   -0.229951   0.155812   0.098456  -0.077887   0.189971
   30  C  6  Z   -0.012902   0.052500  -0.028035   0.148286   0.279550
   31  C  7  S    0.021616  -0.001876   0.011261   0.004073  -0.002234
   32  C  7  S   -0.078976   0.013335  -0.026636  -0.016027   0.015127
   33  C  7  X    0.112420   0.095484  -0.122701   0.131449   0.072899
   34  C  7  Y   -0.018117  -0.113801  -0.135762  -0.025724  -0.082000
   35  C  7  Z   -0.055939   0.145190  -0.020165  -0.164224  -0.103182
   36  C  8  S   -0.009485   0.005612  -0.001264   0.004309   0.011397
   37  C  8  S    0.035753  -0.014555   0.016035  -0.015934  -0.039805
   38  C  8  X    0.073438   0.201994  -0.066635   0.003960  -0.018421
   39  C  8  Y    0.007018   0.064751   0.181887  -0.001318   0.078613
   40  C  8  Z    0.041340  -0.014478  -0.052336   0.158376   0.097308
   41  C  9  S    0.007872   0.011115   0.009334  -0.015194   0.000791
   42  C  9  S   -0.020159  -0.045289  -0.028127   0.061104  -0.000911
   43  C  9  X    0.040030   0.237109  -0.208158   0.099886  -0.002762
   44  C  9  Y   -0.298405   0.069299  -0.145569  -0.218857  -0.087827
   45  C  9  Z    0.114586   0.111819  -0.065788  -0.037891  -0.141204
   46  O 10  S   -0.051714   0.017241  -0.031205  -0.026255  -0.013449
   47  O 10  S    0.276063  -0.093035   0.171628   0.146723   0.078019
   48  O 10  X    0.098492   0.165078  -0.137093   0.167461   0.075279
   49  O 10  Y    0.316020  -0.149887   0.292736   0.209206   0.185014
   50  O 10  Z    0.203867   0.049492   0.028462   0.000268  -0.180136
   51  H 11  S    0.085351  -0.033270  -0.240234  -0.138381   0.170245
   52  H 12  S    0.096881  -0.005527   0.214779  -0.053719   0.021216
   53  H 13  S    0.009439  -0.031973   0.264779  -0.215088   0.003388
   54  H 14  S    0.014251   0.118834   0.095280  -0.227911   0.010472
   55  H 15  S   -0.082231   0.092478   0.073574   0.275928  -0.179031
   56  H 16  S   -0.163388   0.119208   0.008737  -0.003917   0.260570
   57  H 17  S    0.005216  -0.104261   0.100157  -0.008317  -0.046502
   58  H 18  S    0.201884  -0.092711  -0.084740   0.027380  -0.202996
   59  H 19  S    0.044975  -0.033376   0.029203   0.181759   0.168517
   60  H 20  S    0.026960   0.118654   0.113293  -0.116706  -0.056109

                     31         32         33         34         35
                   -0.4434    -0.4185    -0.3647    -0.3155    -0.2824
                     A          A          A          A          A   
    1  C  1  S   -0.008529   0.002736  -0.002590   0.000070  -0.027061
    2  C  1  S    0.036444   0.004711  -0.005943  -0.000918   0.128624
    3  C  1  X    0.013152   0.267823  -0.102532   0.002143   0.333150
    4  C  1  Y   -0.140175   0.006536   0.047286   0.011788   0.013415
    5  C  1  Z    0.162368   0.025138  -0.156153  -0.034044   0.125212
    6  C  2  S    0.003256   0.020123   0.012903   0.004043   0.006614
    7  C  2  S   -0.017013  -0.071304  -0.049086  -0.013478  -0.027391
    8  C  2  X    0.144180   0.011850   0.076852  -0.016830   0.060266
    9  C  2  Y    0.102240  -0.117055  -0.097560  -0.012826   0.026646
   10  C  2  Z   -0.034142   0.208866   0.084675   0.011263   0.102669
   11  C  3  S   -0.016421  -0.003709  -0.013772   0.002325   0.012557
   12  C  3  S    0.058397   0.014473   0.076278  -0.010721  -0.070021
   13  C  3  X   -0.022952   0.130835   0.348609   0.007876  -0.205570
   14  C  3  Y   -0.126252   0.111234  -0.061937   0.019128   0.060706
   15  C  3  Z    0.041395  -0.111577   0.128524  -0.025339  -0.086865
   16  C  4  S    0.025355   0.008800  -0.017283   0.030994   0.008916
   17  C  4  S   -0.092518  -0.029841   0.092268  -0.141375  -0.051198
   18  C  4  X    0.010011  -0.026014  -0.312145  -0.150622   0.265610
   19  C  4  Y    0.136842   0.045744   0.016580  -0.197365   0.047832
   20  C  4  Z   -0.046870   0.009581  -0.174875   0.225539   0.051356
   21  C  5  S    0.005242   0.016580   0.012160  -0.006351   0.003718
   22  C  5  S   -0.011112  -0.061865  -0.043261   0.019897  -0.011213
   23  C  5  X   -0.001603  -0.145470  -0.048810  -0.117159   0.017153
   24  C  5  Y   -0.141761  -0.077439  -0.074041   0.068638   0.049832
   25  C  5  Z    0.184954   0.008794   0.040461  -0.075810   0.059673
   26  C  6  S   -0.003086  -0.007897   0.018742   0.001577  -0.005785
   27  C  6  S    0.022568   0.042344  -0.082599  -0.009821   0.047579
   28  C  6  X    0.012134  -0.262938   0.253808  -0.028037  -0.246420
   29  C  6  Y    0.241701   0.032067  -0.004357  -0.022917   0.017864
   30  C  6  Z   -0.239950  -0.019643  -0.021998   0.091039  -0.057390
   31  C  7  S   -0.011241   0.004110  -0.010049   0.011981   0.005121
   32  C  7  S    0.058251  -0.013309   0.039797  -0.043415  -0.020647
   33  C  7  X   -0.136256  -0.007816   0.320949   0.158695   0.353328
   34  C  7  Y   -0.235638   0.015075  -0.086318  -0.079389  -0.027809
   35  C  7  Z    0.192963  -0.056171   0.247083  -0.014785   0.116020
   36  C  8  S   -0.004211  -0.000251   0.005904  -0.036783   0.007049
   37  C  8  S    0.033602   0.000526  -0.024580   0.164183  -0.034032
   38  C  8  X    0.072870   0.082016   0.347196   0.023201   0.392644
   39  C  8  Y    0.199408  -0.020306  -0.074070   0.098220  -0.108336
   40  C  8  Z   -0.024663   0.068202   0.101756   0.316847   0.137229
   41  C  9  S   -0.003416  -0.002244   0.008101  -0.000925  -0.008859
   42  C  9  S    0.014514   0.011812  -0.029901   0.001876   0.037475
   43  C  9  X   -0.026791   0.381483  -0.002375   0.044587  -0.161042
   44  C  9  Y   -0.125086  -0.114841   0.035594   0.024358  -0.007375
   45  C  9  Z    0.120244   0.165970   0.023562  -0.189813  -0.023147
   46  O 10  S   -0.011982  -0.002952   0.001019   0.000346   0.000145
   47  O 10  S    0.070127   0.017815  -0.008534  -0.001784   0.001872
   48  O 10  X   -0.058143   0.440914   0.040170  -0.420177  -0.277700
   49  O 10  Y    0.109801  -0.052381  -0.022469  -0.044955   0.112977
   50  O 10  Z    0.306712   0.204723  -0.091482   0.651403  -0.294505
   51  H 11  S    0.138091  -0.084674  -0.003640  -0.013362  -0.075771
   52  H 12  S   -0.194792   0.047794   0.132760   0.032527  -0.025244
   53  H 13  S   -0.164224   0.189553   0.063694   0.023040   0.028270
   54  H 14  S   -0.094670   0.175713  -0.049621   0.048359   0.062107
   55  H 15  S    0.016361  -0.094122  -0.079818  -0.020296   0.044746
   56  H 16  S   -0.032477   0.015269  -0.118626   0.109613   0.033543
   57  H 17  S    0.242387   0.044823   0.078796  -0.112472   0.018972
   58  H 18  S   -0.221784  -0.075097   0.019704   0.008982  -0.083350
   59  H 19  S   -0.069761   0.032960  -0.066819   0.115215   0.004245
   60  H 20  S    0.189551  -0.025374   0.040858  -0.120354   0.004808

                     36         37         38         39         40
                   -0.2114     0.1941     0.2213     0.3783     0.3917
                     A          A          A          A          A   
    1  C  1  S   -0.028071  -0.011021  -0.038347   0.030050  -0.039686
    2  C  1  S    0.104050   0.079962   0.188930  -0.130681   0.202063
    3  C  1  X    0.191394   0.230072   0.294887  -0.318804   0.411429
    4  C  1  Y    0.008619  -0.034281   0.002739   0.021541  -0.029797
    5  C  1  Z    0.091301   0.047591   0.104344  -0.239046   0.122296
    6  C  2  S    0.024990  -0.022921  -0.003037  -0.002491  -0.005650
    7  C  2  S   -0.120325   0.127060   0.017365   0.018535   0.043499
    8  C  2  X    0.447470  -0.478452  -0.073890  -0.093201  -0.215857
    9  C  2  Y   -0.138164   0.110357   0.059918   0.006786   0.055868
   10  C  2  Z    0.314482  -0.299674  -0.014950  -0.066286  -0.137621
   11  C  3  S   -0.030845  -0.017660   0.032975  -0.051024  -0.009017
   12  C  3  S    0.117068   0.112566  -0.154935   0.244545   0.059478
   13  C  3  X    0.230310   0.269984  -0.214836   0.525398   0.076699
   14  C  3  Y   -0.050879   0.012592   0.040623  -0.113209   0.081195
   15  C  3  Z    0.079256   0.102459  -0.059384   0.234248  -0.012715
   16  C  4  S    0.033838  -0.014872  -0.015675   0.053218  -0.023156
   17  C  4  S   -0.134203   0.094771   0.061121  -0.256084   0.133943
   18  C  4  X    0.199031  -0.254779  -0.150003   0.528152  -0.112775
   19  C  4  Y   -0.007561   0.053989   0.000541   0.022345  -0.040556
   20  C  4  Z    0.105377  -0.083721  -0.055017   0.175285  -0.008363
   21  C  5  S   -0.024937  -0.022703  -0.002372   0.007296   0.020409
   22  C  5  S    0.119013   0.126017   0.011737  -0.040694  -0.112340
   23  C  5  X    0.560144   0.621311   0.052733  -0.051062  -0.103973
   24  C  5  Y    0.067621   0.043826   0.055306   0.039687  -0.065800
   25  C  5  Z    0.030766   0.076708   0.045595   0.049809  -0.006855
   26  C  6  S    0.030969  -0.016830   0.010645  -0.056183   0.020805
   27  C  6  S   -0.123051   0.102656  -0.029614   0.287186  -0.087690
   28  C  6  X    0.240332  -0.267148   0.111021  -0.477098   0.307290
   29  C  6  Y   -0.026582  -0.007267  -0.006565   0.013982  -0.027050
   30  C  6  Z    0.063184  -0.122185   0.015136  -0.070767   0.083154
   31  C  7  S    0.009330   0.017695   0.004959   0.000454  -0.000819
   32  C  7  S   -0.038579  -0.084937  -0.022757  -0.003596   0.006990
   33  C  7  X   -0.035362  -0.060137   0.504666   0.412465   0.285487
   34  C  7  Y    0.035005   0.083383  -0.075466  -0.076749  -0.059280
   35  C  7  Z   -0.066549  -0.121508   0.197635   0.177287   0.118368
   36  C  8  S   -0.004575  -0.008417  -0.001050  -0.002263  -0.002053
   37  C  8  S    0.020416   0.037499   0.004846   0.013275   0.011603
   38  C  8  X   -0.140394   0.169463  -0.341947  -0.313144  -0.477357
   39  C  8  Y    0.036837  -0.029914   0.066506   0.061597   0.098990
   40  C  8  Z   -0.029694   0.103564  -0.166951  -0.156336  -0.229920
   41  C  9  S    0.009395   0.019908  -0.001428  -0.001270   0.000226
   42  C  9  S   -0.040018  -0.095807   0.005352   0.009842  -0.000482
   43  C  9  X    0.032484   0.038110  -0.420585  -0.011526   0.572960
   44  C  9  Y    0.033898   0.064038   0.085795   0.013531  -0.125757
   45  C  9  Z   -0.053117  -0.105943  -0.202806  -0.008669   0.272331
   46  O 10  S   -0.000156  -0.002396  -0.000376   0.001607  -0.000479
   47  O 10  S   -0.001115   0.010688   0.002612  -0.010830   0.002596
   48  O 10  X   -0.058561  -0.011786   0.486319   0.014150  -0.409834
   49  O 10  Y   -0.016877  -0.036425  -0.109346   0.014662   0.086642
   50  O 10  Z    0.067776   0.067570   0.230475   0.005993  -0.192440
   51  H 11  S   -0.002716  -0.057131  -0.044869  -0.017261  -0.035028
   52  H 12  S    0.077213  -0.150080  -0.029008  -0.083535  -0.045250
   53  H 13  S    0.052562  -0.020217  -0.000700  -0.000275   0.013979
   54  H 14  S    0.070315  -0.142189  -0.009647   0.020713  -0.080094
   55  H 15  S   -0.001634  -0.074842   0.024991  -0.009838  -0.038231
   56  H 16  S    0.008067  -0.066689   0.021701  -0.007586  -0.093441
   57  H 17  S   -0.063386  -0.024059  -0.002788   0.003053   0.033374
   58  H 18  S    0.000870  -0.072426  -0.058879  -0.073150  -0.076664
   59  H 19  S    0.024635   0.034379   0.000897   0.003157  -0.017889
   60  H 20  S   -0.025954  -0.047881  -0.013342  -0.017691  -0.011156

                     41         42         43         44         45
                    0.5297     0.5709     0.5867     0.6195     0.6258
                     A          A          A          A          A   
    1  C  1  S   -0.013685  -0.023579  -0.000827  -0.006218   0.036301
    2  C  1  S    0.054085   0.152648   0.004513   0.041932  -0.227779
    3  C  1  X    0.480328  -0.125662  -0.051896  -0.022257   0.094022
    4  C  1  Y   -0.042900  -0.222989  -0.143653   0.081606   0.343167
    5  C  1  Z    0.141782   0.078477   0.154394  -0.037964  -0.176633
    6  C  2  S   -0.034026  -0.020578  -0.011698   0.002610   0.045138
    7  C  2  S    0.212429   0.127719   0.073522  -0.018769  -0.285737
    8  C  2  X   -0.275700  -0.125842  -0.098040  -0.031797   0.294177
    9  C  2  Y    0.105571  -0.130620  -0.082240   0.026596   0.237759
   10  C  2  Z   -0.219065   0.176702   0.117408   0.017179  -0.317741
   11  C  3  S   -0.014428  -0.012464  -0.023730   0.027328   0.030298
   12  C  3  S    0.057831   0.081365   0.152128  -0.170214  -0.189577
   13  C  3  X    0.480253  -0.146042  -0.112209   0.003215   0.147493
   14  C  3  Y   -0.003443  -0.052781   0.038541  -0.105123   0.047602
   15  C  3  Z    0.188150   0.248041   0.107751   0.115372  -0.382111
   16  C  4  S    0.046066   0.000962  -0.048446   0.106434  -0.009742
   17  C  4  S   -0.242551   0.016803   0.294655  -0.623154   0.071236
   18  C  4  X    0.466876  -0.161119   0.016480  -0.374952  -0.129929
   19  C  4  Y   -0.117044  -0.124192   0.134828  -0.354319  -0.033975
   20  C  4  Z    0.217793   0.383985   0.115366   0.260272   0.216082
   21  C  5  S    0.010922  -0.045110  -0.018491   0.004069  -0.051718
   22  C  5  S   -0.081767   0.282153   0.118657  -0.028326   0.325446
   23  C  5  X   -0.376683  -0.010897   0.034576   0.117754   0.024826
   24  C  5  Y   -0.038133  -0.207040  -0.072343   0.090416  -0.200070
   25  C  5  Z    0.000809   0.257535   0.167986   0.133157   0.256498
   26  C  6  S    0.042591  -0.052115   0.066791  -0.013309   0.007586
   27  C  6  S   -0.223921   0.328867  -0.386612   0.074661  -0.030704
   28  C  6  X    0.461437   0.057311  -0.258219  -0.047913  -0.127125
   29  C  6  Y   -0.012165  -0.341776  -0.208688   0.231532  -0.291894
   30  C  6  Z    0.259312   0.016096   0.366568   0.020826   0.137142
   31  C  7  S   -0.018247  -0.050761  -0.024429   0.054542  -0.052278
   32  C  7  S    0.104977   0.307962   0.132446  -0.363013   0.313282
   33  C  7  X   -0.289006   0.026790  -0.222163  -0.014006  -0.062858
   34  C  7  Y    0.008714  -0.170762  -0.115868   0.193615  -0.184883
   35  C  7  Z   -0.045053  -0.219448   0.555906   0.190189   0.066460
   36  C  8  S    0.015542   0.013110  -0.024467   0.107485   0.001513
   37  C  8  S   -0.090984  -0.055274   0.126810  -0.662295  -0.003353
   38  C  8  X    0.221231   0.120328  -0.257232  -0.127220  -0.043558
   39  C  8  Y   -0.058590  -0.057774   0.092930  -0.383282   0.000229
   40  C  8  Z    0.125386  -0.220106   0.526540   0.016621   0.074180
   41  C  9  S   -0.020631  -0.091767   0.093773  -0.123883  -0.019447
   42  C  9  S    0.118754   0.540238  -0.553769   0.727487   0.112218
   43  C  9  X   -0.306208  -0.060329  -0.121974  -0.098612  -0.085221
   44  C  9  Y    0.014654  -0.127353   0.155400  -0.414404  -0.033493
   45  C  9  Z   -0.054944   0.056022   0.324803   0.188748   0.151194
   46  O 10  S    0.003508   0.018709  -0.014194   0.006531   0.003866
   47  O 10  S   -0.021115  -0.116923   0.084857  -0.025370  -0.025106
   48  O 10  X    0.158614   0.042339   0.029515   0.012610   0.027996
   49  O 10  Y    0.001898   0.168473  -0.114267   0.055498   0.040508
   50  O 10  Z    0.046405   0.004961  -0.110280  -0.077197  -0.040903
   51  H 11  S    0.075162  -0.318510  -0.158405   0.045142   0.459520
   52  H 12  S    0.000289   0.133342   0.222882  -0.089656  -0.241508
   53  H 13  S   -0.044191  -0.348206  -0.224867  -0.009035   0.658617
   54  H 14  S   -0.008965   0.229080   0.026050   0.225699  -0.287361
   55  H 15  S    0.070606  -0.286681  -0.231540   0.030411   0.443436
   56  H 16  S    0.005810  -0.319518  -0.335873   0.217499  -0.236574
   57  H 17  S   -0.040923  -0.514850  -0.258480  -0.047065  -0.511015
   58  H 18  S    0.030627  -0.527770   0.085603   0.194818  -0.235317
   59  H 19  S   -0.012116  -0.461593   0.418007   0.427576  -0.171405
   60  H 20  S    0.089799  -0.137249   0.388847   0.657636   0.088577

                     46         47         48         49         50
                    0.6607     0.6978     0.7140     0.7291     0.7432
                     A          A          A          A          A   
    1  C  1  S    0.026945  -0.102917  -0.055755   0.120612  -0.070456
    2  C  1  S   -0.166503   0.655513   0.347173  -0.770513   0.444892
    3  C  1  X   -0.002201  -0.099509  -0.089399  -0.006747   0.055330
    4  C  1  Y   -0.272689  -0.340026   0.256764  -0.402677  -0.170307
    5  C  1  Z    0.125796  -0.306101   0.019568   0.365847  -0.311846
    6  C  2  S   -0.008946   0.053934   0.077838  -0.012938  -0.012336
    7  C  2  S    0.052268  -0.328247  -0.483389   0.080894   0.104565
    8  C  2  X   -0.037929   0.071966   0.000189   0.050130   0.051426
    9  C  2  Y   -0.141532  -0.100501   0.095442  -0.284233  -0.051079
   10  C  2  Z   -0.056283  -0.085297   0.032897  -0.178625   0.036274
   11  C  3  S    0.002533  -0.062548  -0.127671  -0.091718  -0.073014
   12  C  3  S   -0.018377   0.388012   0.815556   0.589581   0.460698
   13  C  3  X    0.080666   0.012097  -0.232757   0.087625   0.019004
   14  C  3  Y   -0.136205  -0.044194   0.359535   0.143274   0.309497
   15  C  3  Z   -0.203615  -0.302076   0.112430  -0.514010  -0.098660
   16  C  4  S    0.017248  -0.015887  -0.057344   0.025088   0.126599
   17  C  4  S   -0.116725   0.100106   0.372654  -0.139654  -0.789388
   18  C  4  X    0.099814   0.122082   0.134624  -0.054844  -0.106906
   19  C  4  Y   -0.307456  -0.206204   0.003647   0.071208   0.159644
   20  C  4  Z   -0.468175  -0.054540   0.148490   0.223397  -0.102497
   21  C  5  S    0.005892   0.044716   0.067035  -0.000206  -0.145020
   22  C  5  S   -0.043451  -0.279449  -0.433154   0.004313   0.923192
   23  C  5  X    0.127791  -0.048617   0.034942  -0.023149  -0.143954
   24  C  5  Y   -0.210163  -0.112104   0.010322   0.132455   0.066084
   25  C  5  Z   -0.211908   0.010096   0.024320   0.146857  -0.068391
   26  C  6  S    0.070795  -0.090742   0.009033  -0.044805   0.116249
   27  C  6  S   -0.419079   0.573791  -0.049755   0.262603  -0.728801
   28  C  6  X   -0.226364   0.274594  -0.063225  -0.002812  -0.061558
   29  C  6  Y   -0.409266  -0.295413   0.121530   0.222095   0.164766
   30  C  6  Z    0.103503  -0.101995   0.294508  -0.038850  -0.214883
   31  C  7  S   -0.111359   0.088457  -0.075182   0.042349  -0.027513
   32  C  7  S    0.683051  -0.576758   0.474977  -0.257651   0.168378
   33  C  7  X   -0.019220  -0.106007  -0.009220   0.099573  -0.002153
   34  C  7  Y   -0.262845   0.103876   0.092613   0.147949  -0.175254
   35  C  7  Z    0.077863   0.011940  -0.022053   0.006609  -0.043161
   36  C  8  S    0.091515  -0.030925   0.108518   0.006114  -0.032942
   37  C  8  S   -0.552502   0.181283  -0.696698  -0.043554   0.221013
   38  C  8  X   -0.068726  -0.045744   0.035947   0.032634  -0.013770
   39  C  8  Y   -0.161344  -0.201687  -0.049462  -0.007693   0.079618
   40  C  8  Z    0.001124   0.144627  -0.058064  -0.120337   0.001288
   41  C  9  S    0.002528   0.035217  -0.037000  -0.046870  -0.023023
   42  C  9  S   -0.027644  -0.224673   0.220157   0.283432   0.136775
   43  C  9  X    0.120007  -0.115471   0.100116  -0.061001  -0.114831
   44  C  9  Y   -0.167803  -0.093011  -0.018132  -0.030895  -0.009204
   45  C  9  Z   -0.290944   0.020038  -0.419899  -0.000364   0.262421
   46  O 10  S   -0.017169  -0.021039   0.005273   0.010533   0.008715
   47  O 10  S    0.122554   0.143921  -0.033220  -0.070527  -0.059242
   48  O 10  X   -0.074466   0.008258  -0.023850   0.027000   0.041012
[...]
   29  C  6  Y   -0.206670  -0.115038  -0.122348   0.504622   0.081741
   30  C  6  Z    0.100867   0.092291  -0.218372  -0.340708   0.047873
   31  C  7  S   -0.036819  -0.026197  -0.025549   0.082052   0.016144
   32  C  7  S    0.215887   0.157360   0.177175  -0.497247  -0.120969
   33  C  7  X   -0.005240  -0.016420   0.199487   0.088122  -0.049474
   34  C  7  Y   -0.119870  -0.061446  -0.082151   0.317307   0.103494
   35  C  7  Z   -0.087331   0.087004  -0.537960  -0.295931   0.136520
   36  C  8  S    0.048136   0.022223  -0.012519   0.040398   0.093461
   37  C  8  S   -0.268048  -0.131806   0.102920  -0.244420  -0.573881
   38  C  8  X    0.156713   0.021918   0.162696   0.115848   0.022392
   39  C  8  Y   -0.143038  -0.035082   0.041912  -0.124708  -0.299618
   40  C  8  Z   -0.156686   0.018574  -0.516154  -0.301951   0.045039
   41  C  9  S   -0.114239   0.047230  -0.052852  -0.079508  -0.096747
   42  C  9  S    0.659068  -0.283274   0.316862   0.473925   0.565925
   43  C  9  X   -0.209237   0.063953   0.225143   0.062479  -0.135049
   44  C  9  Y   -0.248666  -0.017093  -0.028355  -0.155662  -0.304582
   45  C  9  Z    0.067306  -0.216713  -0.276748  -0.163063   0.054004
   46  O 10  S    0.013264  -0.019995   0.013321   0.011656   0.004371
   47  O 10  S   -0.074829   0.132181  -0.086179  -0.068679  -0.015208
   48  O 10  X    0.088760  -0.058346  -0.066559  -0.009812   0.034556
   49  O 10  Y    0.108158  -0.186896   0.118627   0.091435   0.029655
   50  O 10  Z   -0.002513   0.040529   0.098802   0.050893  -0.027756
   51  H 11  S   -0.242027  -0.115167   0.220299  -0.203282   0.431602
   52  H 12  S    0.206587   0.153892  -0.191056   0.159516  -0.359747
   53  H 13  S   -0.232559   0.184716   0.262211  -0.195909   0.562843
   54  H 14  S    0.405660  -0.136363  -0.174909   0.143980   0.035985
   55  H 15  S   -0.200751   0.449864   0.184278  -0.090242   0.240682
   56  H 16  S   -0.160698   0.519026   0.077425   0.308126   0.142424
   57  H 17  S   -0.319316   0.294040  -0.054837   0.601778   0.011713
   58  H 18  S   -0.384462  -0.091537  -0.441135   0.356482   0.102963
   59  H 19  S   -0.268188  -0.043448  -0.655345   0.135908   0.223904
   60  H 20  S    0.095342   0.110881  -0.543059  -0.076858   0.527327

                     46         47         48         49         50
                    0.6749     0.6872     0.6919     0.7025     0.7183
                     A          A          A          A          A   
    1  C  1  S   -0.000576   0.027683  -0.068651   0.188196  -0.009663
    2  C  1  S    0.002370  -0.157538   0.454554  -1.207730   0.074918
    3  C  1  X    0.122102  -0.053829   0.119821   0.060888  -0.031907
    4  C  1  Y   -0.015934  -0.116767   0.188095   0.208839  -0.147952
    5  C  1  Z    0.043642  -0.089703  -0.189535   0.431379  -0.175056
    6  C  2  S    0.022297  -0.129645  -0.026212  -0.068444  -0.084152
    7  C  2  S   -0.136886   0.816719   0.152719   0.389514   0.546608
    8  C  2  X   -0.237143   0.013042   0.086869  -0.010836  -0.042430
    9  C  2  Y    0.106789   0.059190   0.233333   0.024032   0.050406
   10  C  2  Z   -0.079010   0.302952   0.176276  -0.053032   0.195575
   11  C  3  S   -0.088527   0.042702   0.021055   0.060287   0.020055
   12  C  3  S    0.502415  -0.244523  -0.126057  -0.371027  -0.122049
   13  C  3  X    0.856851   0.128968   0.076839   0.133816   0.316189
   14  C  3  Y   -0.197242   0.424366   0.214503  -0.015417   0.248257
   15  C  3  Z    0.147554   0.040517   0.576331   0.211847  -0.145621
   16  C  4  S    0.124215   0.032271  -0.093242  -0.030360   0.034162
   17  C  4  S   -0.720000  -0.204719   0.556223   0.179716  -0.212082
   18  C  4  X    0.765460  -0.043176   0.426590   0.087770   0.125424
   19  C  4  Y    0.047224  -0.052286  -0.295257  -0.094499  -0.156384
   20  C  4  Z    0.250393  -0.312207   0.059192   0.022714  -0.103867
   21  C  5  S   -0.044585  -0.039437   0.133093   0.044047   0.012918
   22  C  5  S    0.270781   0.252036  -0.832804  -0.273205  -0.055012
   23  C  5  X   -0.233806   0.076084   0.125048   0.045692  -0.101674
   24  C  5  Y   -0.051889  -0.043838  -0.178139  -0.040457  -0.058299
   25  C  5  Z   -0.054339  -0.031729  -0.251539  -0.053328   0.226329
   26  C  6  S    0.041764   0.083962  -0.024838  -0.024746  -0.133391
   27  C  6  S   -0.256910  -0.522546   0.139463   0.150719   0.855923
   28  C  6  X    0.092349  -0.049902  -0.031092   0.000302   0.188693
   29  C  6  Y    0.004017  -0.087816   0.008569  -0.002269  -0.245889
   30  C  6  Z    0.110381   0.104328   0.123616  -0.002503  -0.203457
   31  C  7  S   -0.037659  -0.102081  -0.008820   0.022136   0.135483
   32  C  7  S    0.234616   0.628941   0.060068  -0.133772  -0.873852
   33  C  7  X   -0.083118   0.045167  -0.030170  -0.004064  -0.089053
   34  C  7  Y   -0.053198  -0.113670   0.044344   0.026962   0.195170
   35  C  7  Z    0.039306   0.027158   0.012582   0.005274   0.041959
   36  C  8  S    0.012323   0.118181   0.010974  -0.022011  -0.030668
   37  C  8  S   -0.077448  -0.731385  -0.075664   0.139210   0.179847
   38  C  8  X    0.052884  -0.015854   0.026164   0.013489   0.025513
   39  C  8  Y    0.055198  -0.185660   0.040843   0.036194  -0.264675
   40  C  8  Z    0.055442  -0.044297  -0.013862   0.004283   0.130053
   41  C  9  S   -0.014825  -0.034775   0.037254   0.019718   0.020836
   42  C  9  S    0.093317   0.205036  -0.221623  -0.116348  -0.132559
   43  C  9  X   -0.179033   0.217021   0.026778  -0.017710  -0.092245
   44  C  9  Y    0.086136  -0.136756   0.046553   0.027286  -0.095002
   45  C  9  Z   -0.026801  -0.343949  -0.216410   0.023615   0.023746
   46  O 10  S    0.009119  -0.001833  -0.011494  -0.003944  -0.015590
   47  O 10  S   -0.063173   0.019585   0.075710   0.025209   0.108587
   48  O 10  X    0.091450  -0.082981  -0.014305   0.003113   0.002651
   49  O 10  Y    0.056351  -0.028168  -0.107248  -0.032076  -0.130785
   50  O 10  Z    0.036740   0.082749   0.064119  -0.007662  -0.039578
   51  H 11  S    0.036163  -0.036171  -0.035126   0.862492  -0.185068
   52  H 12  S   -0.005819   0.101409  -0.503314   0.778361  -0.071407
   53  H 13  S    0.097914  -0.589835  -0.060524  -0.190239  -0.381118
   54  H 14  S    0.016419  -0.076046   0.414730   0.309500  -0.158557
   55  H 15  S    0.146760  -0.020432  -0.391115   0.097059   0.213247
   56  H 16  S    0.056004   0.400028  -0.231644  -0.090623   0.220223
   57  H 17  S   -0.175253  -0.117311   0.543284   0.169978  -0.163937
   58  H 18  S    0.117202   0.210759  -0.073831  -0.085419  -0.691012
   59  H 19  S   -0.085768  -0.382493   0.015053   0.086762   0.571883
   60  H 20  S    0.040554   0.455110  -0.005109  -0.092852   0.123314

                     51         52         53         54         55
                    0.7406     0.7831     0.7977     0.8486     0.9145
                     A          A          A          A          A   
    1  C  1  S   -0.044091  -0.006543   0.020228   0.001185   0.005171
    2  C  1  S    0.301917   0.041169  -0.137085  -0.006982  -0.039853
    3  C  1  X    0.078763   0.096418  -0.006518   0.056591  -0.027458
    4  C  1  Y    0.037662   0.271867   0.000492   0.128280  -0.076849
    5  C  1  Z   -0.123491   0.211839  -0.085306  -0.023304  -0.040976
    6  C  2  S   -0.026536   0.074884  -0.038224  -0.002352  -0.007350
    7  C  2  S    0.163589  -0.504270   0.258119   0.014524   0.055464
    8  C  2  X   -0.044626   0.024282   0.020454  -0.010461   0.009558
    9  C  2  Y    0.135642   0.000096  -0.029765  -0.050842   0.020058
   10  C  2  Z    0.163375  -0.044729   0.011085   0.047697  -0.062720
   11  C  3  S    0.155989  -0.081015  -0.079356  -0.019186   0.010840
   12  C  3  S   -0.992700   0.508867   0.519234   0.128589  -0.071805
   13  C  3  X    0.221107  -0.302111  -0.011341  -0.081751   0.056634
   14  C  3  Y   -0.383133  -0.020225   0.488475   0.091149  -0.015936
   15  C  3  Z    0.207391   0.573856  -0.098458   0.082474  -0.066559
   16  C  4  S    0.048055   0.078500   0.084857  -0.026652  -0.045539
   17  C  4  S   -0.315858  -0.501216  -0.529876   0.168500   0.299024
   18  C  4  X   -0.265176   0.031983  -0.125057   0.133649   0.057358
   19  C  4  Y   -0.066155   0.105624  -0.605870  -0.246838   0.053356
   20  C  4  Z   -0.303101  -0.539589   0.089258  -0.207801   0.340780
   21  C  5  S   -0.041293  -0.075198   0.044937  -0.024857  -0.050030
   22  C  5  S    0.266160   0.507011  -0.305435   0.174552   0.374903
   23  C  5  X    0.102918  -0.013275   0.135356   0.014584   0.170089
   24  C  5  Y    0.039477   0.049149   0.010835  -0.558344  -0.421306
   25  C  5  Z   -0.015562  -0.009886  -0.187144   0.377817  -0.181702
   26  C  6  S    0.042788  -0.000578   0.030131   0.049514   0.057597
   27  C  6  S   -0.279183   0.002663  -0.208142  -0.332621  -0.436632
   28  C  6  X   -0.010398   0.190154  -0.078902  -0.094558   0.151506
   29  C  6  Y   -0.011367  -0.256663   0.035752   0.350892   0.341487
   30  C  6  Z   -0.047370  -0.192794   0.139254  -0.082137  -0.439894
   31  C  7  S    0.000164   0.027532  -0.005853   0.045447   0.077238
   32  C  7  S    0.002903  -0.192106   0.041617  -0.306080  -0.570046
   33  C  7  X    0.031949   0.016613   0.025575  -0.195529   0.124705
   34  C  7  Y   -0.220410  -0.115651  -0.353687   0.186109  -0.470102
   35  C  7  Z    0.008258  -0.062880   0.001853   0.491009  -0.273022
   36  C  8  S   -0.086040  -0.013406  -0.099370  -0.012651  -0.052244
   37  C  8  S    0.567147   0.092640   0.673157   0.085262   0.394783
   38  C  8  X   -0.006144  -0.009100   0.062987   0.214020   0.129697
   39  C  8  Y    0.158622  -0.201420   0.161362   0.119012  -0.524660
   40  C  8  Z   -0.006048   0.138137  -0.027120  -0.648134   0.007933
   41  C  9  S    0.027619   0.045301  -0.017539  -0.043734   0.065410
   42  C  9  S   -0.163510  -0.292423   0.104660   0.287701  -0.434820
   43  C  9  X   -0.077114   0.015489  -0.429357   0.164995  -0.129423
   44  C  9  Y    0.006297  -0.124159  -0.180270   0.051348  -0.626054
   45  C  9  Z    0.382965  -0.060399   0.560846  -0.230495  -0.246712
   46  O 10  S   -0.002273  -0.023548  -0.006904   0.015545  -0.071054
   47  O 10  S    0.014173   0.166589   0.052097  -0.109353   0.521510
   48  O 10  X    0.013505  -0.043472   0.097981  -0.025907  -0.084089
   49  O 10  Y   -0.003744  -0.195176  -0.042655   0.121084  -0.557703
   50  O 10  Z   -0.120992  -0.037381  -0.167914   0.086841  -0.076431
   51  H 11  S   -0.090766   0.251777   0.048516   0.112946  -0.052393
   52  H 12  S   -0.302108  -0.023447   0.027334  -0.075880   0.026826
   53  H 13  S   -0.155659   0.267600  -0.116170  -0.047197   0.027848
   54  H 14  S    0.807155   0.173980  -0.527275  -0.043879   0.007940
   55  H 15  S    0.500198  -0.738086  -0.323830  -0.160573   0.099552
   56  H 16  S    0.386597   0.627091   0.356951   0.165770  -0.334853
   57  H 17  S   -0.085772  -0.204900   0.271214  -0.562472  -0.177284
   58  H 18  S    0.125732  -0.256570   0.131992   0.424771   0.369544
   59  H 19  S   -0.091797  -0.012513  -0.156013   0.561110  -0.161755
   60  H 20  S   -0.345873   0.152122  -0.392626  -0.546404   0.065017

                     56         57         58         59         60
                    0.9412     0.9768     1.0246     1.0500     1.1410
                     A          A          A          A          A   
    1  C  1  S   -0.008955  -0.005828   0.017950  -0.110846   0.006865
    2  C  1  S    0.062928   0.046100  -0.143521   0.895131  -0.057368
    3  C  1  X   -0.394129  -0.077085  -0.035283   0.064262  -0.007699
    4  C  1  Y   -0.738476  -0.127022  -0.113385   0.421757  -0.029002
    5  C  1  Z    0.393093   0.124063  -0.142989   1.027589  -0.057344
    6  C  2  S    0.016286   0.003579  -0.019783   0.104484  -0.006334
    7  C  2  S   -0.141805  -0.038569   0.155937  -0.851239   0.050131
    8  C  2  X    0.394181   0.098779   0.028060   0.055346   0.008835
    9  C  2  Y    0.760594   0.197754   0.002729   0.399751  -0.015109
   10  C  2  Z   -0.299949  -0.012961  -0.188442   1.098588  -0.076637
   11  C  3  S    0.055929   0.009234   0.002202   0.011096  -0.001956
   12  C  3  S   -0.366066  -0.062524  -0.008827  -0.070755   0.013206
   13  C  3  X    0.121408   0.035233  -0.037631   0.087793  -0.020467
   14  C  3  Y    0.300114   0.125952   0.075224   0.155340  -0.002326
   15  C  3  Z    0.242911   0.094922   0.061251  -0.308430   0.074286
   16  C  4  S    0.004541  -0.002937  -0.032566  -0.011380  -0.016739
   17  C  4  S   -0.032267   0.011904   0.219863   0.076176   0.111857
   18  C  4  X   -0.014002   0.073170   0.064603  -0.020775   0.143076
   19  C  4  Y   -0.055502  -0.203595  -0.332372  -0.075755  -0.014476
   20  C  4  Z   -0.051175  -0.163197  -0.037194   0.062406  -0.252959
   21  C  5  S    0.001166   0.036387  -0.052785  -0.003441   0.069305
   22  C  5  S   -0.005576  -0.275190   0.448728   0.029867  -0.571520
   23  C  5  X    0.035606  -0.201450   0.418953   0.056304  -0.317344
   24  C  5  Y    0.030362  -0.243074  -0.565695  -0.090606   0.091457
   25  C  5  Z   -0.074512   0.615027  -0.414256  -0.065214   0.578157
   26  C  6  S    0.016139  -0.074582   0.048149   0.007767  -0.058765
   27  C  6  S   -0.112242   0.554317  -0.416378  -0.066610   0.480751
   28  C  6  X    0.007825  -0.192173   0.355508   0.036969  -0.374598
   29  C  6  Y   -0.148701   0.608345   0.034741   0.039363   0.525664
   30  C  6  Z    0.080322  -0.051239  -0.766107  -0.090380   0.466320
   31  C  7  S    0.007399  -0.043509   0.032214   0.013720   0.069698
   32  C  7  S   -0.061578   0.371882  -0.231366  -0.106130  -0.576488
   33  C  7  X   -0.064446   0.152745   0.083668   0.031520   0.222317
   34  C  7  Y   -0.117148   0.594412   0.190473  -0.071151  -0.803359
   35  C  7  Z    0.220911  -0.571812  -0.312377  -0.055135  -0.232121
   36  C  8  S   -0.011113   0.045128   0.000173  -0.009092  -0.071708
   37  C  8  S    0.090736  -0.371733  -0.015737   0.071710   0.596411
   38  C  8  X    0.077322  -0.194090  -0.179572  -0.018290  -0.018795
   39  C  8  Y   -0.085325   0.621178  -0.097662  -0.111526  -0.812637
   40  C  8  Z   -0.176627   0.360174   0.431082   0.066699   0.200786
   41  C  9  S   -0.015011   0.061003  -0.038876  -0.011682  -0.015299
   42  C  9  S    0.101980  -0.412285   0.266971   0.080747   0.109896
   43  C  9  X    0.040764  -0.134712   0.005006  -0.001609   0.131593
   44  C  9  Y   -0.003243  -0.197819   0.716748   0.122414   0.539709
   45  C  9  Z   -0.056449   0.214209   0.274851   0.047732  -0.024004
   46  O 10  S    0.003865  -0.029797   0.064250   0.011989   0.040313
   47  O 10  S   -0.026915   0.218139  -0.486278  -0.091102  -0.313754
   48  O 10  X   -0.004064  -0.025231   0.117546   0.021387   0.051283
   49  O 10  Y    0.028657  -0.224477   0.492021   0.092887   0.302772
   50  O 10  Z    0.017802  -0.096306   0.067268   0.011713   0.077984
   51  H 11  S   -0.595640  -0.107478  -0.050131   0.103634  -0.007551
   52  H 12  S    0.584317   0.120379   0.020255   0.103470  -0.000176
   53  H 13  S    0.615062   0.123800   0.060469  -0.143164   0.020412
   54  H 14  S    0.127717   0.028431  -0.003600  -0.207969   0.026320
   55  H 15  S   -0.058520  -0.056471  -0.057507   0.155353  -0.042867
   56  H 16  S    0.056900   0.148329   0.026216  -0.045144   0.091445
   57  H 17  S    0.052746  -0.384670  -0.070001   0.000722  -0.127808
   58  H 18  S   -0.067040   0.269490   0.085288   0.038371   0.238243
   59  H 19  S    0.128078  -0.292625  -0.058373  -0.025979  -0.227075
   60  H 20  S   -0.113729   0.112778   0.297623   0.056838   0.210190

 THE NUCLEAR REPULSION AT THE IRC POINT IS      495.1969824968

 * * * IRC RESTART INFORMATION * * *
 COORDINATES FOR $DATA AND ENTIRE $IRC GROUP FOLLOW

 COORDINATES OF SYMMETRY UNIQUE ATOMS (ANGS)
   ATOM   CHARGE       X              Y              Z
 ------------------------------------------------------------
 C           6.0  -1.9188463177  -5.0831688769  -2.0977768661
 C           6.0  -1.8410577772  -4.5929984127  -0.8865700579
 C           6.0  -1.2258971422  -3.2395120597  -0.5403546696
 C           6.0   0.2953853910  -3.3113515068  -0.1055373748
 C           6.0   0.8238600241  -4.7438105187  -0.1006542229
 C           6.0   1.4876547335  -5.2489518580  -1.1186993539
 C           6.0   1.8072287578  -4.4231861970  -2.3126715788
 C           6.0   1.6405570144  -3.1142225010  -2.3037860584
 C           6.0   1.1290097342  -2.4171938998  -1.0625642293
 O           8.0   1.3385440944  -1.2343718733  -0.8354896411
 H           1.0  -2.3506947696  -6.0544201778  -2.2955738323
 H           1.0  -1.5568759123  -4.5435537647  -2.9624190156
 H           1.0  -2.2093805405  -5.1697066875  -0.0452267248
 H           1.0  -1.3156877002  -2.5821244564  -1.4022385467
 H           1.0  -1.7940003611  -2.7841661833   0.2681742433
 H           1.0   0.3803266976  -2.8942662450   0.8973547350
 H           1.0   0.5853890366  -5.3462326945   0.7680034515
 H           1.0   1.8241289881  -6.2775437509  -1.1174061575
 H           1.0   2.2105709590  -4.9318649483  -3.1811440657
 H           1.0   1.9148046524  -2.4895400118  -3.1442016765
 $IRC   PACE=GS2        STRIDE= 0.10000   NPOINT=??
        STOTAL=  9.998151   NEXTPT= 101
        NPRT= 0   NPUN= 0   SADDLE=.FALSE.
        GA(   1)= 2.023730431E-03,-6.957586754E-04, 2.960615439E-05
        GA(   4)=-1.225871681E-04, 2.731320455E-04,-1.251674311E-04
        GA(   7)=-4.492654594E-05, 2.072940038E-04,-1.053499648E-04
        GA(  10)=-8.343717731E-05, 1.737540981E-04, 1.535876882E-04
        GA(  13)=-9.724474981E-05, 1.427952390E-04, 9.268708401E-05
        GA(  16)=-6.412457627E-04, 7.682437121E-05,-1.002266119E-04
        GA(  19)=-1.174895894E-03,-2.392973308E-06,-3.280467637E-04
        GA(  22)=-8.537511222E-04, 4.052560811E-05,-2.113969699E-04
        GA(  25)= 5.476003739E-06, 1.259069757E-05, 1.337908156E-04
        GA(  28)= 9.661257057E-04,-1.452127474E-04, 5.060294995E-04
        GA(  31)= 1.573926471E-04,-6.564001126E-05, 5.177413263E-06
        GA(  34)= 3.240845075E-04,-1.469881935E-04, 3.966218346E-05
        GA(  37)=-1.586180251E-04, 9.272679521E-05,-2.690382047E-05
        GA(  40)= 1.482204995E-05, 1.234203152E-05, 2.285556426E-06
        GA(  43)=-1.739056089E-05, 2.662479328E-05,-1.090420691E-05
        GA(  46)=-1.896643508E-05, 1.668650722E-05, 9.057117537E-06
        GA(  49)= 1.517540640E-05, 1.103522111E-05, 3.818041355E-05
        GA(  52)=-4.815182553E-05,-5.365912270E-06,-1.542148669E-05
        GA(  55)=-1.391871303E-04,-1.975035833E-05,-6.088117138E-05
        GA(  58)=-1.064043481E-04,-5.222573618E-06,-2.576551394E-05
 $END   
 A GS2 RESTART ALSO REQUIRES THE UPDATED $HESS GROUP FROM THE PUNCH FILE
 ......DONE WITH THIS PORTION OF THE IRC......
 STEP CPU TIME =     0.01 TOTAL CPU TIME =        215.5 (      3.6 MIN)
 TOTAL WALL CLOCK TIME=        217.2 SECONDS, CPU UTILIZATION IS    99.19%
               580000  WORDS OF DYNAMIC MEMORY USED
 EXECUTION OF GAMESS TERMINATED NORMALLY Sat Nov 13 14:09:35 2021
 DDI: 263640 bytes (0.3 MB / 0 MWords) used by master data server.

 ----------------------------------------
 CPU timing information for all processes
 ========================================
 0: 199.623 + 15.868 = 215.491
 ----------------------------------------
 ddikick.x: exited gracefully.
----- accounting info -----
Files used on the master node chemcompute-node-0.novalocal were:
-rw-r--r--. 1 chemcomp chemcomp    60520 Nov 13 14:05 /scratch/305950/341848.F05
-rw-rw-r--. 1 chemcomp chemcomp 17101520 Nov 13 14:09 /scratch/305950/341848.F08
-rw-rw-r--. 1 chemcomp chemcomp 52428800 Nov 13 14:09 /scratch/305950/341848.F10
Sat Nov 13 14:09:38 UTC 2021
0.158u 0.106s 3:40.89 0.1%	0+0k 120+328io 0pf+0w
Finishing Up...
Looking for IR data...
Looking for Raman data...
vibramans not found
Looking for thermodynamics data...
Looking for UV-Vis data...
305950
