----- GAMESS execution script 'rungms' -----
This job is running on host chemcompute-node-0.novalocal
under operating system Linux at Mon Nov 15 06:22:57 UTC 2021
SLURM has assigned the following compute nodes to this run:
chemcompute-node-0
Available scratch disk space (Kbyte units) at beginning of the job is
Filesystem     1K-blocks     Used Available Use% Mounted on
/dev/sda1       62903276 16715392  46187884  27% /
GAMESS temporary binary files will be written to /scratch/306700
GAMESS supplementary output files will be written to /data/slurm/342714
Copying input file 342714.inp to your run's scratch directory...
The generated host list is
chemcompute-node-0.novalocal

 Distributed Data Interface kickoff program.
 Initiating 1 compute processes on 1 nodes to run the following command:
 /data/gamess-2019R1-ddi/gamess.00.x 342714 

          ******************************************************
          *         GAMESS VERSION = 30 JUN 2019 (R1)          *
          *             FROM IOWA STATE UNIVERSITY             *
          * M.W.SCHMIDT, K.K.BALDRIDGE, J.A.BOATZ, S.T.ELBERT, *
          *   M.S.GORDON, J.H.JENSEN, S.KOSEKI, N.MATSUNAGA,   *
          *          K.A.NGUYEN, S.J.SU, T.L.WINDUS,           *
          *       TOGETHER WITH M.DUPUIS, J.A.MONTGOMERY       *
          *         J.COMPUT.CHEM.  14, 1347-1363(1993)        *
          **************** 64 BIT LINUX VERSION ****************

  SINCE 1993, STUDENTS AND POSTDOCS WORKING AT IOWA STATE UNIVERSITY
  AND ALSO IN THEIR VARIOUS JOBS AFTER LEAVING ISU HAVE MADE IMPORTANT
  CONTRIBUTIONS TO THE CODE:
     IVANA ADAMOVIC, CHRISTINE AIKENS, YURI ALEXEEV, POOJA ARORA,
     ANDREY ASADCHEV, ROB BELL, PRADIPTA BANDYOPADHYAY, JONATHAN BENTZ,
     COLLEEN BERTONI, BRETT BODE, KURT BRORSEN, CALEB CARLIN, GALINA CHABAN,
     WEI CHEN, CHEOL HO CHOI, PAUL DAY, ALBERT DEFUSCO, NUWAN DESILVA,
     TIM DUDLEY, DMITRI FEDOROV, ALEX FINDLATER, GRAHAM FLETCHER, 
     MARK FREITAG, KURT GLAESEMANN, ANASTASIA GUNINA,
     DAN KEMP, GRANT MERRILL, NORIYUKI MINEZAWA, JONATHAN MULLIN,
     TAKESHI NAGATA, SEAN NEDD, HEATHER NETZLOFF, BOSILJKA NJEGIC, RYAN OLSON,
     MIKE PAK, BUU PHAM,
     SPENCER PRUITT, LUKE ROSKOP, JIM SHOEMAKER, LYUDMILA SLIPCHENKO,
     TONY SMITH, SAROM SOK LEANG, JIE SONG, TETSUYA TAKETSUGU, SIMON WEBB,
     PENG XU, SOOHAENG YOO, FEDERICO ZAHARIEV

  ADDITIONAL CODE HAS BEEN PROVIDED BY COLLABORATORS IN OTHER GROUPS:
     IOWA STATE UNIVERSITY:
          JOE IVANIC, AARON WEST, LAIMUTIS BYTAUTAS, KLAUS RUEDENBERG
     UNIVERSITY OF TOKYO: KIMIHIKO HIRAO, TAKAHITO NAKAJIMA,
          TAKAO TSUNEDA, MUNEAKI KAMIYA, SUSUMU YANAGISAWA,
          KIYOSHI YAGI, MAHITO CHIBA, SEIKEN TOKURA, NAOAKI KAWAKAMI
     UNIVERSITY OF AARHUS: FRANK JENSEN
     UNIVERSITY OF IOWA: VISVALDAS KAIRYS, HUI LI
     NATIONAL INST. OF STANDARDS AND TECHNOLOGY: WALT STEVENS, DAVID GARMER
     UNIVERSITY OF PISA: BENEDETTA MENNUCCI, JACOPO TOMASI
     UNIVERSITY OF MEMPHIS: HENRY KURTZ, PRAKASHAN KORAMBATH
     UNIVERSITY OF ALBERTA: TOBY ZENG, MARIUSZ KLOBUKOWSKI
     UNIVERSITY OF NEW ENGLAND: MARK SPACKMAN
     MIE UNIVERSITY: HIROAKI UMEDA
     NAT. INST. OF ADVANCED INDUSTRIAL SCIENCE AND TECHNOLOGY: KAZUO KITAURA
     MICHIGAN STATE UNIVERSITY:
          KAROL KOWALSKI, MARTA WLOCH, JEFFREY GOUR, JESSE LUTZ,
          WEI LI, JUN SHEN, J. EMILIANO DEUSTUA, PIOTR PIECUCH
     UNIVERSITY OF MINNESOTA:
          YINAN SHU
     UNIVERSITY OF SILESIA: MONIKA MUSIAL, STANISLAW KUCHARSKI
     FACULTES UNIVERSITAIRES NOTRE-DAME DE LA PAIX:
          OLIVIER QUINET, BENOIT CHAMPAGNE
     UNIVERSITY OF CALIFORNIA - SANTA BARBARA: BERNARD KIRTMAN
     INSTITUTE FOR MOLECULAR SCIENCE:
          KAZUYA ISHIMURA, MICHIO KATOUDA, AND SHIGERU NAGASE
     UNIVERSITY OF NOTRE DAME: ANNA POMOGAEVA, DAN CHIPMAN
     KYUSHU UNIVERSITY:
          HARUYUKI NAKANO,
          FENG LONG GU, JACEK KORCHOWIEC, MARCIN MAKOWSKI, AND YURIKO AOKI,
          HIROTOSHI MORI AND EISAKU MIYOSHI
     PENNSYLVANIA STATE UNIVERSITY:
          TZVETELIN IORDANOV, CHET SWALINA, JONATHAN SKONE,
          SHARON HAMMES-SCHIFFER
     WASEDA UNIVERSITY:
          MASATO KOBAYASHI, TOMOKO AKAMA, TSUGUKI TOUMA,
          TAKESHI YOSHIKAWA, YASUHIRO IKABATA, JUNJI SEINO,
          YUYA NAKAJIMA, HIROMI NAKAI
     NANJING UNIVERSITY: SHUHUA LI
     UNIVERSITY OF NEBRASKA:
          PEIFENG SU, DEJUN SI, NANDUN THELLAMUREGE, YALI WANG, HUI LI
     UNIVERSITY OF ZURICH: ROBERTO PEVERATI, KIM BALDRIDGE
     N. COPERNICUS UNIVERSITY AND JACKSON STATE UNIVERSITY:
          MARIA BARYSZ
     UNIVERSITY OF COPENHAGEN: Jimmy Kromann, CASPER STEINMANN
     TOKYO INSTITUTE OF TECHNOLOGY: HIROYA NAKATA
     NAGOYA UNIVERSITY: YOSHIO NISHIMOTO, STEPHAN IRLE
     MOSCOW STATE UNIVERSITY: VLADIMIR MIRONOV
     A.N.NESMEYANOV INSTITUTE OF ORGANOELEMENT COMPOUNDS OF RUSSIAN ACADEMY OF SCIENCES:
          IGOR S. GERASIMOV

 EXECUTION OF GAMESS BEGUN Mon Nov 15 06:22:57 2021

            ECHO OF THE FIRST FEW INPUT CARDS -
 INPUT CARD>!File created by the GAMESS Input Deck Generator Plugin for Avogadro            
 INPUT CARD> $BASIS GBASIS=STO NGAUSS=3 $END                                                
 INPUT CARD> $CONTRL SCFTYP=RHF RUNTYP=SADPOINT NZVAR=1 mult=1  ICHARG=0 $END               
 INPUT CARD> $STATPT hssend=.t. OPTTOL=0.0005 NSTEP=50 $END                                 
 INPUT CARD> $STATPT HESS=calc ihrep=5 $END                                                 
 INPUT CARD> $FORCE nvib=2 $END                                                             
 INPUT CARD> $ZMAT DLC=.t. auto=.t. nonvdw(1)=3,17,2,20,17,20,2,3 $END                      
 INPUT CARD>!$ZMAT IFZMAT(1)=1,3,17,1,2,20,1,17,20 fvalue(1)=2.08,2.01,1.98 $END            
 INPUT CARD>                                                                                
 INPUT CARD> $DATA                                                                          
 INPUT CARD>Title                                                                           
 INPUT CARD>C1                                                                              
 INPUT CARD>C     6.0     0.93820858     0.21437223     0.84709120                          
 INPUT CARD>C     6.0     2.16494274    -0.32410821     0.09327870                          
 INPUT CARD>C     6.0     3.03200698    -1.26019645     0.70214343                          
 INPUT CARD>C     6.0     4.48914242    -1.03568709     0.29495028                          
 INPUT CARD>C     6.0     4.48176622     0.38614330    -0.32789490                          
 INPUT CARD>C     6.0     3.02009439     0.63353062    -0.78474885                          
 INPUT CARD>H     1.0     0.35689312    -0.60189122     1.26504183                          
 INPUT CARD>H     1.0     0.30037588     0.80516046     0.19806363                          
 INPUT CARD>H     1.0     1.28515267     0.84364361     1.66545916                          
 INPUT CARD>H     1.0     2.77012897    -1.74961376     1.62876403                          
 INPUT CARD>H     1.0     4.84196186    -1.77574003    -0.42141449                          
 INPUT CARD>H     1.0     5.14324570    -1.08697951     1.16309273                          
 INPUT CARD>H     1.0     5.18418455     0.48337984    -1.15138853                          
 INPUT CARD>H     1.0     4.75493574     1.11609173     0.43052816                          
 INPUT CARD>H     1.0     2.90186763     0.40785700    -1.84035099                          
 INPUT CARD>H     1.0     2.70978546     1.66415775    -0.62842739                          
 INPUT CARD>B     5.0     1.92488360    -2.23764825    -0.76252913                          
 INPUT CARD>H     1.0     2.66877508    -2.48500609    -1.60757291                          
 INPUT CARD>H     1.0     1.16442800    -2.89976549    -0.20365657                          
 INPUT CARD>H     1.0     0.90461457    -0.67835712    -1.43190348                          
 INPUT CARD> $END                                                                           
    1000000 WORDS OF MEMORY AVAILABLE

     BASIS OPTIONS
     -------------
     GBASIS=STO          IGAUSS=       3      POLAR=NONE    
     NDFUNC=       0     NFFUNC=       0     DIFFSP=       F
     NPFUNC=       0      DIFFS=       F     BASNAM=        


     RUN TITLE
     ---------
 Title                                                                           

 THE POINT GROUP OF THE MOLECULE IS C1      
 THE ORDER OF THE PRINCIPAL AXIS IS     0

 ATOM      ATOMIC                      COORDINATES (BOHR)
           CHARGE         X                   Y                   Z
 C           6.0     1.7729571355        0.4051047741        1.6007702546
 C           6.0     4.0911485577       -0.6124757073        0.1762711835
 C           6.0     5.7296623851       -2.3814259812        1.3268586868
 C           6.0     8.4832490937       -1.9571648091        0.5573752092
 C           6.0     8.4693100968        0.7297050290       -0.6196315138
 C           6.0     5.7071508542        1.1971992766       -1.4829602957
 H           1.0     0.6744302037       -1.1374094802        2.3905824217
 H           1.0     0.5676281065        1.5215326455        0.3742859888
 H           1.0     2.4285863987        1.5942552542        3.1472614561
 H           1.0     5.2347847040       -3.3062905907        3.0779177154
 H           1.0     9.1499811584       -3.3556620821       -0.7963579134
 H           1.0     9.7193250605       -2.0540934282        2.1979265580
 H           1.0     9.7966882693        0.9134554456       -2.1758088271
 H           1.0     8.9855256378        2.1091075469        0.8135802524
 H           1.0     5.4837346733        0.7707379722       -3.4777590923
 H           1.0     5.1207520049        3.1448021478       -1.1875555703
 B           5.0     3.6375025623       -4.2285420494       -1.4409711134
 H           1.0     5.0432536241       -4.6959805879       -3.0378723052
 H           1.0     2.2004498524       -5.4797622048       -0.3848551129
 H           1.0     1.7094736618       -1.2819090786       -2.7059052181

          INTERNUCLEAR DISTANCES (ANGS.)
          ------------------------------

                1 C          2 C          3 C          4 C          5 C     

   1 C       0.0000000    1.5372284 *  2.5650252 *  3.8048179    3.7372314  
   2 C       1.5372284 *  0.0000000    1.4137814 *  2.4390408 *  2.4595763 *
   3 C       2.5650252 *  1.4137814 *  0.0000000    1.5295275 *  2.4234718 *
   4 C       3.8048179    2.4390408 *  1.5295275 *  0.0000000    1.5522861 *
   5 C       3.7372314    2.4595763 *  2.4234718 *  1.5522861 *  0.0000000  
   6 C       2.6782166 *  1.5554063 *  2.4077360 *  2.4718698 *  1.5512577 *
   7 H       1.0857700 *  2.1723802 *  2.8118418 *  4.2667014    4.5308098  
   8 H       1.0849415 *  2.1823925 *  3.4614454    4.5764475    4.2351190  
   9 H       1.0890724 *  2.1469574 *  2.8992448 *  3.9592586    3.7948788  
  10 H       2.7971746 *  2.1808328 *  1.0801551 *  2.2899253 *  3.3644724  
  11 H       4.5616821    3.0884584    2.1918267 *  1.0887325 *  2.1936787 *
  12 H       4.4131293    3.2552670    2.1679039 *  1.0881881 *  2.1978831 *
  13 H       4.7004892    3.3640830    3.3327927    2.2096479 *  1.0867328 *
  14 H       3.9438597    2.9826124 *  2.9477116 *  2.1723673 *  1.0874980 *
  15 H       3.3340274    2.1949385 *  3.0436190    3.0270072    2.1872527 *
  16 H       2.7235120 *  2.1842424 *  3.2289461    3.3627221    2.2053473 *
  17 B       3.0946421    2.1098983 *  2.0800000 *  3.0229781    3.6892869  
  18 H       4.0381778    2.7957509 *  2.6394859 *  3.0056376    3.6287755  
  19 H       3.2944043    2.7790665 *  2.6450920 *  3.8441024    4.6709062  
  20 H       2.4478380 *  2.0100000 *  3.0689561    3.9948152    3.8920445  

                6 C          7 H          8 H          9 H         10 H     

   1 C       2.6782166 *  1.0857700 *  1.0849415 *  1.0890724 *  2.7971746 *
   2 C       1.5554063 *  2.1723802 *  2.1823925 *  2.1469574 *  2.1808328 *
   3 C       2.4077360 *  2.8118418 *  3.4614454    2.8992448 *  1.0801551 *
   4 C       2.4718698 *  4.2667014    4.5764475    3.9592586    2.2899253 *
   5 C       1.5512577 *  4.5308098    4.2351190    3.7948788    3.3644724  
   6 C       0.0000000    3.5805796    2.8969373 *  3.0095996    3.4010152  
   7 H       3.5805796    0.0000000    1.7667572 *  1.7639645 *  2.6968997 *
   8 H       2.8969373 *  1.7667572 *  0.0000000    1.7676300 *  3.8305946  
   9 H       3.0095996    1.7639645 *  1.7676300 *  0.0000000    2.9885590 *
  10 H       3.4010152    2.6968997 *  3.8305946    2.9885590 *  0.0000000  
  11 H       3.0423343    4.9333455    5.2603045    4.8853970    2.9148595 *
  12 H       3.3558923    4.8119513    5.2881814    4.3433351    2.5075121 *
  13 H       2.2000582 *  5.5063319    5.0770219    4.8235745    4.3061785  
  14 H       2.1724267 *  4.7948574    4.4714451    3.6930580    3.6861220  
  15 H       1.0859107 *  4.1400424    3.3287751    3.8851489    4.0873945  
  16 H       1.0876214 *  3.7757524    2.6881626 *  2.8221867 *  4.0929684  
  17 B       3.0730520    3.0406149    3.5805654    3.9747632    2.5828086 *
  18 H       3.2443391    4.1403907    4.4378862    4.8689895    3.3203842  
  19 H       4.0330320    2.8441895 *  3.8254989    4.1858428    2.6942327 *
  20 H       2.5719863 *  2.7530637 *  2.2853275 *  3.4720240    3.7410454  

               11 H         12 H         13 H         14 H         15 H     

   1 C       4.5616821    4.4131293    4.7004892    3.9438597    3.3340274  
   2 C       3.0884584    3.2552670    3.3640830    2.9826124 *  2.1949385 *
   3 C       2.1918267 *  2.1679039 *  3.3327927    2.9477116 *  3.0436190  
   4 C       1.0887325 *  1.0881881 *  2.2096479 *  2.1723673 *  3.0270072  
   5 C       2.1936787 *  2.1978831 *  1.0867328 *  1.0874980 *  2.1872527 *
   6 C       3.0423343    3.3558923    2.2000582 *  2.1724267 *  1.0859107 *
   7 H       4.9333455    4.8119513    5.5063319    4.7948574    4.1400424  
   8 H       5.2603045    5.2881814    5.0770219    4.4714451    3.3287751  
   9 H       4.8853970    4.3433351    4.8235745    3.6930580    3.8851489  
  10 H       2.9148595 *  2.5075121 *  4.3061785    3.6861220    4.0873945  
  11 H       0.0000000    1.7538033 *  2.3986665 *  3.0159693    3.2473747  
  12 H       1.7538033 *  0.0000000    2.7972358 *  2.3539240 *  4.0347225  
  13 H       2.3986665 *  2.7972358 *  0.0000000    1.7569972 *  2.3852345 *
  14 H       3.0159693    2.3539240 *  1.7569972 *  0.0000000    3.0153524  
  15 H       3.2473747    4.0347225    2.3852345 *  3.0153524    0.0000000  
  16 H       4.0523977    4.0865669    2.7911244 *  2.3673620 *  1.7561167 *
  17 B       2.9730563 *  3.9229979    4.2635957    4.5475436    3.0190886  
  18 H       2.5754167 *  3.9691399    3.9174870    4.6339862    2.9115588 *
  19 H       3.8516369    4.5809592    5.3387556    5.4241170    4.0789498  
  20 H       4.2104680    4.9866794    4.4433141    4.6382832    2.3099156 *

               16 H         17 B         18 H         19 H         20 H     

   1 C       2.7235120 *  3.0946421    4.0381778    3.2944043    2.4478380 *
   2 C       2.1842424 *  2.1098983 *  2.7957509 *  2.7790665 *  2.0100000 *
   3 C       3.2289461    2.0800000 *  2.6394859 *  2.6450920 *  3.0689561  
   4 C       3.3627221    3.0229781    3.0056376    3.8441024    3.9948152  
   5 C       2.2053473 *  3.6892869    3.6287755    4.6709062    3.8920445  
   6 C       1.0876214 *  3.0730520    3.2443391    4.0330320    2.5719863 *
   7 H       3.7757524    3.0406149    4.1403907    2.8441895 *  2.7530637 *
   8 H       2.6881626 *  3.5805654    4.4378862    3.8254989    2.2853275 *
   9 H       2.8221867 *  3.9747632    4.8689895    4.1858428    3.4720240  
  10 H       4.0929684    2.5828086 *  3.3203842    2.6942327 *  3.7410454  
  11 H       4.0523977    2.9730563 *  2.5754167 *  3.8516369    4.2104680  
  12 H       4.0865669    3.9229979    3.9691399    4.5809592    4.9866794  
  13 H       2.7911244 *  4.2635957    3.9174870    5.3387556    4.4433141  
  14 H       2.3673620 *  4.5475436    4.6339862    5.4241170    4.6382832  
  15 H       1.7561167 *  3.0190886    2.9115588 *  4.0789498    2.3099156 *
  16 H       0.0000000    3.9822286    4.2633283    4.8371433    3.0645704  
  17 B       3.9822286    0.0000000    1.1526749 *  1.1528359 *  1.9799999 *
  18 H       4.2633283    1.1526749 *  0.0000000    2.0990633 *  2.5312255 *
  19 H       4.8371433    1.1528359 *  2.0990633 *  0.0000000    2.5516169 *
  20 H       3.0645704    1.9799999 *  2.5312255 *  2.5516169 *  0.0000000  

  * ... LESS THAN  3.000


     ATOMIC BASIS SET
     ----------------
 THE CONTRACTED PRIMITIVE FUNCTIONS HAVE BEEN UNNORMALIZED
 THE CONTRACTED BASIS FUNCTIONS ARE NOW NORMALIZED TO UNITY

  SHELL TYPE  PRIMITIVE        EXPONENT          CONTRACTION COEFFICIENT(S)

 C         

      1   S       1            71.6168373    0.154328967295
      1   S       2            13.0450963    0.535328142282
      1   S       3             3.5305122    0.444634542185

      2   L       4             2.9412494   -0.099967229187    0.155916274999
      2   L       5             0.6834831    0.399512826089    0.607683718598
      2   L       6             0.2222899    0.700115468880    0.391957393099

 C         

      3   S       7            71.6168373    0.154328967295
      3   S       8            13.0450963    0.535328142282
      3   S       9             3.5305122    0.444634542185

      4   L      10             2.9412494   -0.099967229187    0.155916274999
      4   L      11             0.6834831    0.399512826089    0.607683718598
      4   L      12             0.2222899    0.700115468880    0.391957393099

 C         

      5   S      13            71.6168373    0.154328967295
      5   S      14            13.0450963    0.535328142282
      5   S      15             3.5305122    0.444634542185

      6   L      16             2.9412494   -0.099967229187    0.155916274999
      6   L      17             0.6834831    0.399512826089    0.607683718598
      6   L      18             0.2222899    0.700115468880    0.391957393099

 C         

      7   S      19            71.6168373    0.154328967295
      7   S      20            13.0450963    0.535328142282
      7   S      21             3.5305122    0.444634542185

      8   L      22             2.9412494   -0.099967229187    0.155916274999
      8   L      23             0.6834831    0.399512826089    0.607683718598
      8   L      24             0.2222899    0.700115468880    0.391957393099

 C         

      9   S      25            71.6168373    0.154328967295
      9   S      26            13.0450963    0.535328142282
      9   S      27             3.5305122    0.444634542185

     10   L      28             2.9412494   -0.099967229187    0.155916274999
     10   L      29             0.6834831    0.399512826089    0.607683718598
     10   L      30             0.2222899    0.700115468880    0.391957393099

 C         

     11   S      31            71.6168373    0.154328967295
     11   S      32            13.0450963    0.535328142282
     11   S      33             3.5305122    0.444634542185

     12   L      34             2.9412494   -0.099967229187    0.155916274999
     12   L      35             0.6834831    0.399512826089    0.607683718598
     12   L      36             0.2222899    0.700115468880    0.391957393099

 H         

     13   S      37             3.4252509    0.154328967295
     13   S      38             0.6239137    0.535328142282
     13   S      39             0.1688554    0.444634542185

 H         

     14   S      40             3.4252509    0.154328967295
     14   S      41             0.6239137    0.535328142282
     14   S      42             0.1688554    0.444634542185

 H         

     15   S      43             3.4252509    0.154328967295
     15   S      44             0.6239137    0.535328142282
     15   S      45             0.1688554    0.444634542185

 H         

     16   S      46             3.4252509    0.154328967295
     16   S      47             0.6239137    0.535328142282
     16   S      48             0.1688554    0.444634542185

 H         

     17   S      49             3.4252509    0.154328967295
     17   S      50             0.6239137    0.535328142282
     17   S      51             0.1688554    0.444634542185

 H         

     18   S      52             3.4252509    0.154328967295
     18   S      53             0.6239137    0.535328142282
     18   S      54             0.1688554    0.444634542185

 H         

     19   S      55             3.4252509    0.154328967295
     19   S      56             0.6239137    0.535328142282
     19   S      57             0.1688554    0.444634542185

 H         

     20   S      58             3.4252509    0.154328967295
     20   S      59             0.6239137    0.535328142282
     20   S      60             0.1688554    0.444634542185

 H         

     21   S      61             3.4252509    0.154328967295
     21   S      62             0.6239137    0.535328142282
     21   S      63             0.1688554    0.444634542185

 H         

     22   S      64             3.4252509    0.154328967295
     22   S      65             0.6239137    0.535328142282
     22   S      66             0.1688554    0.444634542185

 B         

     23   S      67            48.7911132    0.154328967295
     23   S      68             8.8873622    0.535328142282
     23   S      69             2.4052670    0.444634542185

     24   L      70             2.2369561   -0.099967229187    0.155916274999
     24   L      71             0.5198205    0.399512826089    0.607683718598
     24   L      72             0.1690618    0.700115468880    0.391957393099

 H         

     25   S      73             3.4252509    0.154328967295
     25   S      74             0.6239137    0.535328142282
     25   S      75             0.1688554    0.444634542185

 H         

     26   S      76             3.4252509    0.154328967295
     26   S      77             0.6239137    0.535328142282
     26   S      78             0.1688554    0.444634542185

 H         

     27   S      79             3.4252509    0.154328967295
     27   S      80             0.6239137    0.535328142282
     27   S      81             0.1688554    0.444634542185

 TOTAL NUMBER OF BASIS SET SHELLS             =   27
 NUMBER OF CARTESIAN GAUSSIAN BASIS FUNCTIONS =   48
 NUMBER OF ELECTRONS                          =   54
 CHARGE OF MOLECULE                           =    0
 SPIN MULTIPLICITY                            =    1
 NUMBER OF OCCUPIED ORBITALS (ALPHA)          =   27
 NUMBER OF OCCUPIED ORBITALS (BETA )          =   27
 TOTAL NUMBER OF ATOMS                        =   20
 THE NUCLEAR REPULSION ENERGY IS      303.0631370807

     $CONTRL OPTIONS
     ---------------
 SCFTYP=RHF          RUNTYP=SADPOINT     EXETYP=RUN     
 MPLEVL=       0     CITYP =NONE         CCTYP =NONE         VBTYP =NONE    
 DFTTYP=NONE         TDDFT =NONE    
 MULT  =       1     ICHARG=       0     NZVAR =       1     COORD =UNIQUE  
 PP    =NONE         RELWFN=NONE         LOCAL =NONE         NUMGRD=       F
 ISPHER=      -1     NOSYM =       0     MAXIT =      30     UNITS =ANGS    
 PLTORB=       F     MOLPLT=       F     AIMPAC=       F     FRIEND=        
 NPRINT=       7     IREST =       0     GEOM  =INPUT   
 NORMF =       0     NORMP =       0     ITOL  =      20     ICUT  =       9
 INTTYP=BEST         GRDTYP=BEST         QMTTOL= 1.0E-06

     $SYSTEM OPTIONS
     ---------------
  REPLICATED MEMORY=     1000000 WORDS (ON EVERY NODE).
 DISTRIBUTED MEMDDI=           0 MILLION WORDS IN AGGREGATE,
 MEMDDI DISTRIBUTED OVER   1 PROCESSORS IS           0 WORDS/PROCESSOR.
 TOTAL MEMORY REQUESTED ON EACH PROCESSOR=     1000000 WORDS.
 TIMLIM=      525600.00 MINUTES, OR     365.0 DAYS.
 PARALL= F  BALTYP=  DLB     KDIAG=    0  COREFL= F
 MXSEQ2=     300 MXSEQ3=     150  mem10=         0

          ----------------
          PROPERTIES INPUT
          ----------------

     MOMENTS            FIELD           POTENTIAL          DENSITY
 IEMOM =       1   IEFLD =       0   IEPOT =       0   IEDEN =       0
 WHERE =COMASS     WHERE =NUCLEI     WHERE =NUCLEI     WHERE =NUCLEI  
 OUTPUT=BOTH       OUTPUT=BOTH       OUTPUT=BOTH       OUTPUT=BOTH    
 IEMINT=       0   IEFINT=       0                     IEDINT=       0
                                                       MORB  =       0
          EXTRAPOLATION IN EFFECT
          SOSCF IN EFFECT
 ORBITAL PRINTING OPTION: NPREO=     1    48     2     1

     -------------------------------
     INTEGRAL TRANSFORMATION OPTIONS
     -------------------------------
     NWORD  =            0
     CUTOFF = 1.0E-09     MPTRAN =       0
     DIRTRF =       F     AOINTS =DUP     

          ----------------------
          INTEGRAL INPUT OPTIONS
          ----------------------
 NOPK  =       1 NORDER=       0 SCHWRZ=       T


 -----------------------------------------------
  STATISTICS ON AUTOMATIC COORDINATE GENERATION 
 -----------------------------------------------
  NUMBER OF USER SPECIFIED BONDS                             4
  NUMBER OF BONDS                                           22
  NUMBER OF ANGLES                                          49
  NUMBER OF TORSIONS                                        69
  NUMBER OF EXTRA COORD.                                     0
  NUMBER OF EXTRA COORD. FOR CONSTRAINTS                     0
  NUMBER OF CONSTRAINED COORD.                               0

  TOTAL NUMBER OF PRIMITIVES                               140
 -----------------------------------------------

   --- ENCODED Z MATRIX ---
 COORD  TYPE   I   J   K   L   M   N
    1      1    1   2
    2      1    1   7
    3      1    1   9
    4      1    1   8
    5      1    2   3
    6      1    2   3
    7      1    2  20
    8      1    2   6
    9      1    3   4
   10      1    3  10
   11      1    3  17
   12      1    4  12
   13      1    4  11
   14      1    4   5
   15      1    5  14
   16      1    5  13
   17      1    5   6
   18      1    6  15
   19      1    6  16
   20      1   17  20
   21      1   17  19
   22      1   17  18
   23      2    1   2  20
   24      2    1   2   3
   25      2    1   2   6
   26      2    1   2   3
   27      2    2   6  15
   28      2    2   3   4
   29      2    2   3  10
   30      2    2   3  17
   31      2    2   1   7
   32      2    2   6  16
   33      2    2   1   8
   34      2    2  20  17
   35      2    2   1   9
   36      2    2   3  10
   37      2    2   3  17
   38      2    2   3   4
   39      2    2   6   5
   40      2    3   4   5
   41      2    3   4  11
   42      2    3   4  12
   43      2    3   2   6
   44      2    3   2  20
   45      2    3   2   6
   46      2    3  17  18
   47      2    3  17  19
   48      2    3  17  20
   49      2    3   2  20
   50      2    4   3  17
   51      2    4   3  10
   52      2    4   5  13
   53      2    4   5   6
   54      2    4   5  14
   55      2    5   6  16
   56      2    5   6  15
   57      2    5   4  11
   58      2    5   4  12
   59      2    6   5  13
   60      2    6   5  14
   61      2    6   2  20
   62      2    7   1   8
   63      2    7   1   9
   64      2    8   1   9
   65      2   10   3  17
   66      2   11   4  12
   67      2   13   5  14
   68      2   15   6  16
   69      2   18  17  19
   70      2   18  17  20
   71      2   19  17  20
   72      3    1   2   6  15
   73      3    1   2   6   5
   74      3    1   2   3  17
   75      3    1   2  20  17
   76      3    1   2   3  10
   77      3    1   2   3   4
   78      3    1   2   6  16
   79      3    2   3   4  11
   80      3    2  20  17  18
   81      3    2   3   4  12
   82      3    2  20  17  19
   83      3    2  20  17   3
   84      3    2   6   5  13
   85      3    2   6   5  14
   86      3    2   6   5   4
   87      3    2   3  17  18
   88      3    2   3  17  19
   89      3    2   3  17  20
   90      3    2   3   4   5
   91      3    3   2   1   8
   92      3    3   2  20  17
   93      3    3   2   1   9
   94      3    3   2   6  15
   95      3    3   2   6  16
   96      3    3   4   5   6
   97      3    3   4   5  13
   98      3    3   4   5  14
   99      3    3   2   1   7
  100      3    3   2   6   5
  101      3    4   3  17  19
  102      3    4   3  17  18
  103      3    4   3   2   6
  104      3    4   3   2  20
  105      3    4   5   6  16
  106      3    4   5   6  15
  107      3    4   3  17  20
  108      3    5   4   3  17
  109      3    5   4   3  10
  110      3    5   6   2  20
  111      3    6   2  20  17
  112      3    6   2   1   8
  113      3    6   2   1   9
  114      3    6   2   1   7
  115      3    6   2   3  17
  116      3    6   5   4  11
  117      3    6   5   4  12
  118      3    6   2   3  10
  119      3    7   1   2  20
  120      3    8   1   2  20
  121      3    9   1   2  20
  122      3   10   3  17  19
  123      3   10   3  17  18
  124      3   10   3   4  12
  125      3   10   3   4  11
  126      3   10   3   2  20
  127      3   10   3  17  20
  128      3   11   4   3  17
  129      3   11   4   5  14
  130      3   11   4   5  13
  131      3   12   4   3  17
  132      3   12   4   5  14
  133      3   12   4   5  13
  134      3   13   5   6  15
  135      3   13   5   6  16
  136      3   14   5   6  15
  137      3   14   5   6  16
  138      3   15   6   2  20
  139      3   16   6   2  20
  140      3   17   3   2  20

          INDEP./SYM. INTERNAL COORDINATES
          --------------------------------
 CRD  1=  -0.2734 (  8) -0.1024 ( 17)  0.2877 ( 24) -0.4177 ( 25)  0.2877 ( 26)
           0.2408 ( 31) -0.1048 ( 32) -0.2190 ( 33)  0.1479 ( 74) -0.3064 ( 75)
           0.1652 ( 76)  0.2032 ( 77)  0.1144 (111)  0.1068 (113)
 CRD  2=  -0.1666 (  8) -0.2289 (  9)  0.2849 ( 23) -0.1278 ( 24) -0.1278 ( 26)
           0.1423 ( 33) -0.1970 ( 35) -0.1024 ( 39)  0.1165 ( 43)  0.1165 ( 45)
          -0.1124 ( 46) -0.2297 ( 50) -0.2085 ( 61)  0.1334 ( 65) -0.1013 ( 72)
          -0.1058 ( 73)  0.3118 ( 74) -0.1128 ( 75)  0.1066 ( 76) -0.1205 ( 78)
           0.1485 ( 80)  0.1021 ( 82) -0.1641 (104)  0.1031 (110) -0.1035 (111)
           0.2709 (115)  0.1116 (119) -0.1502 (126)  0.1076 (138)
 CRD  3=   0.5108 (  1)  0.1067 (  5)  0.1067 (  6)  0.1279 (  9) -0.1096 ( 11)
           0.1590 ( 24)  0.1590 ( 26)  0.1637 ( 31)  0.2781 ( 35)  0.1581 ( 39)
          -0.1270 ( 43) -0.1270 ( 45) -0.1675 ( 50) -0.1268 ( 56) -0.1149 ( 62)
          -0.1601 ( 63) -0.1290 ( 64)  0.1880 ( 73) -0.1550 ( 75) -0.1333 ( 77)
          -0.1717 (104)  0.1215 (110) -0.1785 (111)  0.1223 (115)
 CRD  4=  -0.4041 (  1) -0.3169 (  8) -0.1292 (  9) -0.3098 ( 11) -0.1916 ( 31)
          -0.2509 ( 33) -0.1260 ( 34)  0.1209 ( 35) -0.1374 ( 46)  0.1319 ( 48)
          -0.1064 ( 50)  0.1668 ( 62)  0.1415 ( 69)  0.1191 ( 72)  0.1644 ( 73)
          -0.1721 ( 77)  0.1125 ( 80) -0.1340 (104) -0.1280 (114)  0.1026 (120)
 CRD  5=   0.3005 (  8) -0.2867 (  9) -0.2791 ( 11) -0.1273 ( 12)  0.1196 ( 19)
           0.1652 ( 20)  0.1491 ( 27)  0.1324 ( 30)  0.1324 ( 37) -0.1449 ( 39)
           0.1231 ( 40) -0.1031 ( 41) -0.1142 ( 44) -0.1461 ( 47) -0.1142 ( 49)
          -0.1277 ( 54)  0.1104 ( 60)  0.1024 ( 70)  0.1047 ( 71) -0.1320 ( 82)
           0.1156 ( 90)  0.1002 (100) -0.1245 (103) -0.1110 (106)  0.2234 (108)
           0.1664 (110)  0.1005 (123)  0.1095 (128)  0.1547 (131)  0.1264 (139)
 CRD  6=  -0.2124 (  1) -0.1530 (  5) -0.1530 (  6)  0.2783 ( 11)  0.1665 ( 14)
           0.1173 ( 16) -0.1545 ( 27) -0.1292 ( 28) -0.1917 ( 33)  0.1108 ( 34)
          -0.1292 ( 38)  0.2190 ( 39)  0.2625 ( 40) -0.2091 ( 41)  0.1747 ( 47)
          -0.1690 ( 48)  0.1250 ( 51)  0.1618 ( 52) -0.3177 ( 53)  0.1187 ( 54)
          -0.1008 ( 55) -0.1168 ( 58)  0.1023 ( 60)  0.1045 ( 66) -0.1254 ( 67)
          -0.1367 ( 69)  0.1429 ( 82) -0.1164 ( 85) -0.1001 ( 86)  0.1053 ( 97)
 CRD  7=  -0.2036 (  8)  0.3561 (  9)  0.1093 ( 13)  0.2867 ( 14) -0.1011 ( 17)
          -0.1019 ( 29) -0.2965 ( 31) -0.1005 ( 32)  0.2904 ( 33) -0.1019 ( 36)
          -0.1934 ( 40)  0.1673 ( 42)  0.1276 ( 51)  0.1160 ( 52)  0.1278 ( 57)
          -0.1458 ( 59) -0.1431 ( 64) -0.1013 ( 66)  0.1075 ( 70)  0.1008 ( 75)
           0.1308 ( 87)  0.1186 (102)  0.1287 (111)
 CRD  8=  -0.1357 (  3)  0.1741 (  9) -0.2977 ( 11)  0.2584 ( 31) -0.1127 ( 32)
           0.2380 ( 33) -0.1103 ( 34) -0.5351 ( 35)  0.1948 ( 39) -0.1390 ( 46)
          -0.1012 ( 47)  0.1182 ( 48) -0.1973 ( 53) -0.1987 ( 62)  0.1079 ( 63)
           0.1263 ( 64)  0.1336 ( 69)
 CRD  9=  -0.1291 (  2)  0.1221 (  4) -0.2834 (  8) -0.1151 (  9)  0.1372 ( 11)
          -0.2792 ( 14)  0.3432 ( 17) -0.1025 ( 27) -0.3626 ( 31) -0.1190 ( 32)
           0.3350 ( 33)  0.1111 ( 46) -0.1254 ( 53) -0.1036 ( 58)  0.1423 ( 59)
           0.1535 ( 60)  0.1597 ( 63) -0.1372 ( 64) -0.1329 (135)  0.1395 (136)
 CRD 10=  -0.1138 ( 12) -0.4365 ( 14) -0.1554 ( 16) -0.5544 ( 17) -0.1587 ( 19)
          -0.1253 ( 31)  0.1479 ( 33) -0.1090 ( 43) -0.1090 ( 45) -0.1519 ( 55)
          -0.1171 ( 56) -0.1203 ( 57)
 CRD 11=   0.1399 (  1) -0.1191 (  8) -0.2287 (  9) -0.1721 ( 11)  0.3344 ( 14)
          -0.1502 ( 17) -0.1368 ( 19) -0.1783 ( 31)  0.1277 ( 33)  0.1924 ( 35)
           0.1129 ( 39) -0.2300 ( 42) -0.2122 ( 47) -0.1786 ( 53)  0.2272 ( 54)
          -0.1085 ( 55)  0.1709 ( 58) -0.1197 ( 60) -0.1520 ( 64) -0.1032 ( 73)
          -0.1938 ( 82) -0.1524 ( 98) -0.1386 (100) -0.1093 (110)  0.1293 (117)
          -0.1154 (129)  0.1226 (131)  0.1144 (133)
 CRD 12=   0.1212 (  3) -0.1059 (  4) -0.1105 (  5) -0.1105 (  6)  0.1771 (  9)
          -0.2008 ( 11) -0.1278 ( 12) -0.2023 ( 14)  0.1876 ( 17)  0.1036 ( 23)
          -0.2091 ( 33)  0.2578 ( 35)  0.1783 ( 41) -0.2071 ( 46)  0.1310 ( 51)
          -0.1244 ( 52)  0.1055 ( 56) -0.1687 ( 57)  0.1982 ( 59)  0.1160 ( 62)
          -0.1229 ( 63) -0.1197 ( 65) -0.1018 ( 73)  0.1632 ( 80) -0.1569 ( 97)
           0.1536 (102)  0.1035 (107)  0.1333 (116)  0.1075 (125)  0.1331 (128)
 CRD 13=   0.1410 (  1) -0.1133 (  4) -0.1539 (  5) -0.1539 (  6) -0.2642 (  8)
          -0.2025 ( 10) -0.1402 ( 21)  0.1609 ( 22)  0.2577 ( 31) -0.1080 ( 32)
          -0.1674 ( 33)  0.2793 ( 46) -0.2404 ( 47) -0.1038 ( 54)  0.1274 ( 57)
          -0.1644 ( 63)  0.1114 ( 75) -0.3051 ( 80) -0.2917 ( 82) -0.1111 (105)
 CRD 14=  -0.1115 (  7)  0.1300 (  9)  0.1157 ( 12) -0.1291 ( 18)  0.2120 ( 19)
           0.2408 ( 20)  0.1016 ( 22) -0.2570 ( 27)  0.2126 ( 32) -0.1060 ( 35)
           0.1221 ( 46) -0.2016 ( 47) -0.1968 ( 52)  0.1233 ( 54)  0.1561 ( 56)
           0.1283 ( 59) -0.1612 ( 60)  0.1241 ( 71)  0.1401 ( 72) -0.1113 ( 80)
          -0.2079 ( 82) -0.2215 ( 84) -0.2117 ( 85) -0.1058 ( 86) -0.1101 ( 90)
           0.1053 ( 94)  0.1298 ( 96)  0.1008 (105)  0.1248 (106) -0.1032 (112)
          -0.1014 (113) -0.1197 (114)  0.1100 (116)  0.1120 (138)
 CRD 15=   0.1426 (  8)  0.1983 (  9)  0.5150 ( 10)  0.2129 ( 18) -0.1148 ( 21)
          -0.1291 ( 28) -0.1291 ( 38)  0.1968 ( 46) -0.2199 ( 47)  0.1125 ( 51)
          -0.1236 ( 57) -0.1032 ( 59)  0.1371 ( 60) -0.1445 ( 70)  0.1003 ( 79)
          -0.1667 ( 80) -0.1744 ( 82) -0.1212 ( 87)  0.1040 (107) -0.1268 (117)
 CRD 16=  -0.1925 (  7) -0.2157 ( 13) -0.3208 ( 15)  0.2639 ( 16)  0.1311 ( 18)
           0.1860 ( 20)  0.1500 ( 21) -0.1499 ( 32)  0.1424 ( 52) -0.1644 ( 54)
           0.1020 ( 55)  0.1011 ( 71)  0.1098 ( 85) -0.1689 ( 91) -0.1677 ( 93)
          -0.1769 ( 99) -0.2084 (105) -0.1748 (106) -0.1744 (112) -0.1731 (113)
          -0.1824 (114)  0.1327 (117) -0.1183 (119) -0.1102 (120) -0.1090 (121)
 CRD 17=   0.1732 (  7)  0.1469 (  9)  0.1186 ( 10) -0.3831 ( 15)  0.3384 ( 16)
          -0.2525 ( 18) -0.1284 ( 21)  0.1373 ( 41) -0.1157 ( 42) -0.1255 ( 56)
           0.1163 ( 59) -0.1394 ( 60)  0.1012 ( 93)  0.1045 ( 99) -0.1477 (105)
          -0.1575 (106)  0.1532 (112)  0.1600 (113)  0.1633 (114)  0.2041 (116)
           0.1907 (117) -0.1177 (127)
 CRD 18=  -0.1799 (  3) -0.3446 (  7) -0.1448 (  9)  0.1925 ( 10) -0.2614 ( 12)
          -0.1008 ( 18)  0.1586 ( 19)  0.1045 ( 31)  0.1103 ( 33)  0.1208 ( 41)
          -0.1508 ( 42)  0.1191 ( 46) -0.1117 ( 48)  0.1814 ( 55) -0.1410 ( 62)
           0.1182 ( 73) -0.1038 ( 76) -0.1412 ( 77)  0.1022 ( 79) -0.1288 ( 80)
           0.1121 ( 88) -0.1178 ( 95) -0.1237 ( 97) -0.1178 ( 98)  0.1627 (101)
           0.1103 (102) -0.1143 (104)  0.1273 (122) -0.1333 (139)
 CRD 19=   0.2233 (  2)  0.2238 (  3)  0.2407 (  4)  0.1040 (  9) -0.2168 ( 12)
           0.4123 ( 13)  0.1086 ( 15)  0.1385 ( 20)  0.1062 ( 22) -0.1120 ( 31)
          -0.1341 ( 33) -0.1153 ( 35)  0.1598 ( 57) -0.1115 ( 58)  0.1303 ( 62)
           0.1110 ( 63)  0.1300 ( 64) -0.1073 ( 79) -0.1397 ( 97) -0.1292 ( 98)
          -0.1228 (101) -0.1111 (107)  0.1102 (109) -0.1025 (122)
 CRD 20=  -0.1293 (  1) -0.4076 (  2) -0.2989 (  3) -0.3907 (  4)  0.1930 (  7)
           0.1299 ( 10) -0.1491 ( 12)  0.2145 ( 13) -0.1159 ( 18)  0.1106 ( 31)
           0.1196 ( 33)  0.1622 ( 35)  0.1347 ( 57) -0.1342 ( 58) -0.1135 ( 62)
          -0.1429 ( 63) -0.1468 ( 64) -0.1050 ( 79) -0.1039 ( 81) -0.1306 (128)
          -0.1294 (131)
 CRD 21=   0.1437 (  2)  0.2831 (  3)  0.1259 (  4)  0.2731 (  7) -0.1237 ( 10)
          -0.2853 ( 18)  0.2863 ( 19) -0.1614 ( 20) -0.2013 ( 22)  0.1159 ( 48)
           0.1887 ( 55) -0.1788 ( 56) -0.1514 ( 70) -0.1898 ( 72) -0.1947 ( 78)
          -0.1219 ( 84) -0.1126 ( 85) -0.1710 ( 94) -0.1759 ( 95)  0.1067 (110)
          -0.1004 (119) -0.1161 (120) -0.1159 (121)  0.1160 (127)
 CRD 22=  -0.1348 (  1) -0.1220 (  2) -0.1207 (  3) -0.1782 (  4) -0.1591 (  7)
           0.1170 (  9) -0.2239 ( 10)  0.2728 ( 12) -0.1140 ( 16)  0.3517 ( 21)
           0.3214 ( 22)  0.1086 ( 27) -0.1082 ( 48)  0.1284 ( 55) -0.1625 ( 56)
           0.1144 ( 58) -0.1154 ( 72) -0.1013 ( 78) -0.1648 ( 94) -0.1508 ( 95)
          -0.1311 (101) -0.1083 (102) -0.1182 (122)  0.1328 (128)  0.1436 (131)
          -0.1694 (138) -0.1554 (139)
 CRD 23=   0.1590 (  7)  0.1872 ( 10) -0.1679 ( 12)  0.5204 ( 21)  0.5742 ( 22)
          -0.1159 ( 46)  0.2342 ( 69) -0.1058 ( 82)  0.1269 ( 88)  0.1632 (101)
           0.1687 (122)
 CRD 24=   0.1984 (  2) -0.2597 (  7) -0.1046 ( 11)  0.2973 ( 21) -0.2120 ( 22)
          -0.1103 ( 41)  0.1074 ( 42)  0.1095 ( 57) -0.1347 ( 58) -0.1939 ( 70)
           0.1922 ( 71) -0.1274 ( 79) -0.1380 ( 81) -0.1594 ( 87) -0.1072 ( 88)
           0.1259 ( 91)  0.1804 ( 93)  0.1370 ( 99) -0.1128 (102)  0.1122 (107)
           0.1319 (113)  0.1719 (119)  0.1609 (120)  0.2153 (121) -0.1082 (122)
          -0.1604 (123) -0.1545 (124) -0.1439 (125) -0.1128 (128) -0.1234 (131)
 CRD 25=   0.1244 (  2)  0.1376 (  7)  0.1001 ( 11)  0.4154 ( 13) -0.1264 ( 15)
          -0.1609 ( 16) -0.1339 ( 18)  0.2225 ( 21) -0.1621 ( 22)  0.1029 ( 41)
          -0.1650 ( 42)  0.1073 ( 52)  0.1174 ( 60) -0.1617 ( 70)  0.1468 ( 71)
           0.1135 ( 79) -0.1033 ( 87) -0.1131 ( 88)  0.1026 ( 94) -0.1128 (101)
          -0.1029 (102) -0.1097 (104)  0.1201 (117)  0.1015 (125) -0.1168 (126)
           0.1272 (129)  0.2039 (132)  0.1575 (133)  0.1289 (134)  0.1236 (135)
           0.1079 (136)  0.1025 (137)  0.1249 (138)
 CRD 26=   0.4642 (  2) -0.5650 (  4)  0.1356 ( 18)  0.1299 ( 19)  0.3115 ( 63)
          -0.2599 ( 64) -0.1115 ( 91)  0.1645 ( 93) -0.1623 ( 99)  0.1783 (113)
          -0.1485 (114) -0.1626 (119) -0.1118 (120)  0.1641 (121)
 CRD 27=   0.3777 (  2) -0.5981 (  3)  0.1736 (  4)  0.1589 ( 15)  0.1182 ( 16)
          -0.1250 ( 18) -0.1141 ( 19)  0.3219 ( 62) -0.1065 ( 63) -0.2095 ( 64)
          -0.2136 ( 91)  0.1254 ( 99) -0.1963 (112)  0.1427 (114)  0.1274 (119)
          -0.2115 (120)
 CRD 28=   0.1922 (  3) -0.1908 (  4)  0.4580 ( 15)  0.4388 ( 16) -0.3821 ( 18)
          -0.3404 ( 19) -0.1093 ( 62)  0.1672 ( 67) -0.1349 ( 68)  0.1006 (130)
          -0.1024 (134)  0.1419 (137)
 CRD 29=  -0.2704 ( 12)  0.2918 ( 15)  0.3116 ( 16)  0.3528 ( 18)  0.4979 ( 19)
           0.1008 ( 41)  0.1176 ( 67)  0.1690 ( 68)  0.1625 (130)  0.1698 (136)
           0.1025 (139)
 CRD 30=   0.1222 (  9) -0.5375 ( 12) -0.4305 ( 13) -0.1657 ( 15) -0.2951 ( 16)
          -0.1516 ( 18) -0.1458 ( 19)  0.1142 ( 58) -0.2334 ( 66)  0.1286 ( 81)
          -0.1256 (101)  0.1058 (116) -0.1043 (122)  0.1200 (124)  0.1735 (129)
           0.1433 (131)
 CRD 31=   0.2340 (  7) -0.1070 (  8)  0.1667 ( 10)  0.1180 ( 11)  0.1778 ( 12)
          -0.1848 ( 13)  0.3115 ( 18) -0.2149 ( 19)  0.1601 ( 20)  0.1003 ( 21)
          -0.1106 ( 22) -0.1079 ( 32) -0.1280 ( 52)  0.1115 ( 54)  0.1137 ( 59)
          -0.1255 ( 60)  0.1080 ( 71)  0.1336 ( 81)  0.1130 ( 95) -0.1077 ( 98)
          -0.1021 (101) -0.1049 (104) -0.1255 (105)  0.1134 (124) -0.1072 (126)
          -0.1417 (129) -0.1237 (130)  0.1202 (131) -0.1294 (132) -0.1115 (133)
          -0.1599 (134) -0.2111 (135) -0.1461 (136) -0.1973 (137)  0.1161 (139)
 CRD 32=  -0.1045 (  5) -0.1045 (  6) -0.1567 (  7) -0.1882 ( 10)  0.1673 ( 18)
          -0.2031 ( 19) -0.4841 ( 20) -0.1122 ( 44)  0.1165 ( 46) -0.1122 ( 49)
          -0.1611 ( 70) -0.1276 ( 71)  0.1184 ( 72) -0.1542 ( 87) -0.1656 (102)
           0.1325 (110) -0.1175 (114) -0.1888 (119) -0.1595 (120) -0.1413 (121)
          -0.2274 (123)  0.1878 (138)  0.1359 (139)
 CRD 33=  -0.1405 ( 12)  0.1347 ( 13)  0.2919 ( 15) -0.2676 ( 16) -0.1065 ( 81)
          -0.1492 ( 84) -0.1413 ( 85) -0.1183 ( 86)  0.1236 ( 96)  0.1674 ( 97)
           0.1544 ( 98) -0.1902 (105) -0.1790 (106)  0.1708 (116)  0.1973 (117)
           0.2015 (129)  0.2145 (130)  0.2280 (132)  0.2410 (133) -0.2100 (134)
          -0.2212 (135) -0.2021 (136) -0.2133 (137)
 CRD 34=  -0.1743 (  2) -0.1437 (  3) -0.1290 (  4)  0.1336 (  5)  0.1336 (  6)
           0.1331 (  7)  0.1080 (  8) -0.4240 ( 10) -0.1884 ( 12)  0.1892 ( 13)
          -0.1781 ( 15)  0.1990 ( 16)  0.1865 ( 18) -0.1629 ( 19)  0.1232 ( 22)
          -0.1557 ( 31) -0.1149 ( 33) -0.1525 ( 35)  0.1508 ( 62)  0.1569 ( 63)
           0.1264 ( 64) -0.1388 ( 80) -0.1321 (104)  0.1122 (122)  0.1186 (123)
          -0.1020 (126)  0.1579 (127)
 CRD 35=  -0.2018 (  7)  0.1084 (  8) -0.1654 ( 10)  0.1971 ( 11)  0.1254 ( 12)
          -0.1307 ( 13)  0.1510 ( 15) -0.1301 ( 18)  0.1489 ( 19) -0.1395 ( 20)
          -0.2106 ( 21)  0.1003 ( 41) -0.1628 ( 46) -0.1941 ( 47) -0.1110 ( 51)
           0.2011 ( 65)  0.2122 ( 69)  0.1391 ( 71) -0.1217 ( 76)  0.1733 ( 80)
          -0.2300 ( 82) -0.1007 (106)  0.1463 (109) -0.1955 (118)  0.1513 (125)
          -0.2468 (126) -0.1062 (136)
 CRD 36=  -0.2146 (  1)  0.1190 (  2)  0.1115 (  3)  0.2790 (  4)  0.3005 (  7)
           0.1028 (  8) -0.2945 ( 10) -0.1052 ( 12)  0.1978 ( 20)  0.1411 ( 31)
           0.2204 ( 33) -0.1249 ( 34)  0.1647 ( 35)  0.1020 ( 44)  0.1020 ( 49)
           0.1011 ( 51) -0.1110 ( 57) -0.2264 ( 62) -0.2172 ( 64) -0.1147 ( 68)
           0.1024 ( 72)  0.1272 ( 79)  0.1018 (121) -0.1192 (122)  0.1417 (125)
          -0.1338 (139)
 CRD 37=  -0.1221 (  7) -0.4425 ( 11)  0.1337 ( 12) -0.1555 ( 13)  0.1945 ( 15)
          -0.1191 ( 16) -0.1939 ( 18)  0.1561 ( 19)  0.2444 ( 20)  0.1444 ( 22)
          -0.1314 ( 34)  0.2169 ( 46)  0.2175 ( 47)  0.1059 ( 62) -0.1885 ( 69)
          -0.1523 ( 70) -0.1086 ( 71) -0.2297 ( 80)  0.2217 ( 82)  0.1286 ( 95)
          -0.1090 ( 97)
 CRD 38=  -0.4124 (  1)  0.1717 (  2)  0.2197 (  3) -0.2015 (  7) -0.1213 (  8)
           0.1013 ( 13)  0.1483 ( 16) -0.1352 ( 19)  0.1007 ( 29)  0.1724 ( 31)
           0.1461 ( 33)  0.1631 ( 35)  0.1007 ( 36) -0.1102 ( 51) -0.1297 ( 55)
          -0.1405 ( 56)  0.1341 ( 60) -0.1066 ( 62) -0.2408 ( 63) -0.1500 ( 64)
          -0.1249 ( 66) -0.1591 ( 72) -0.1207 ( 94)  0.1515 ( 98)  0.1067 (122)
           0.1173 (127)  0.1960 (129) -0.1204 (133)  0.1250 (139)
 CRD 39=  -0.1129 (  7) -0.2293 (  8) -0.1353 ( 12) -0.2701 ( 14)  0.1171 ( 16)
           0.3312 ( 17)  0.1585 ( 21) -0.1502 ( 22)  0.1413 ( 27)  0.1204 ( 32)
           0.1815 ( 52)  0.2296 ( 54) -0.1836 ( 59) -0.1452 ( 60)  0.1113 ( 66)
          -0.1265 ( 68)  0.1249 ( 84) -0.1858 ( 85)  0.1432 ( 97)  0.1176 (105)
          -0.1231 (106)  0.1035 (128) -0.1355 (129)  0.1424 (133)  0.2321 (135)
          -0.3195 (136)
 CRD 40=  -0.1728 (  1)  0.1111 (  2)  0.2551 (  9) -0.1800 ( 14) -0.1395 ( 16)
          -0.3195 ( 21)  0.3625 ( 22)  0.1086 ( 29) -0.1139 ( 32)  0.1086 ( 36)
          -0.1061 ( 41)  0.1009 ( 47) -0.1129 ( 59) -0.1481 ( 60) -0.1032 ( 63)
           0.1226 ( 67) -0.1179 ( 70)  0.1480 ( 71) -0.1167 ( 88) -0.1472 ( 98)
           0.1005 (107)  0.1918 (127) -0.2282 (129)  0.1486 (133)  0.1324 (138)
 CRD 41=   0.2211 (  2) -0.1101 (  3) -0.1391 (  4)  0.1519 (  5)  0.1519 (  6)
          -0.1085 (  8) -0.2266 (  9)  0.1303 ( 14) -0.1013 ( 32)  0.1955 ( 41)
           0.1600 ( 42)  0.1127 ( 52) -0.1718 ( 57) -0.2018 ( 58)  0.1920 ( 64)
          -0.1148 ( 67)  0.1025 ( 79) -0.1620 ( 81)  0.1219 ( 84)  0.1814 ( 91)
           0.1340 (112) -0.1061 (113)  0.1192 (116) -0.1118 (117) -0.1873 (121)
          -0.1599 (124)  0.1046 (125)  0.1347 (128)  0.1347 (129)  0.1207 (130)
          -0.1298 (131) -0.1102 (133)  0.1529 (134) -0.1703 (137)
 CRD 42=   0.1194 (  1) -0.2069 (  3)  0.1184 (  4)  0.1330 (  7) -0.2507 (  8)
           0.1152 ( 10) -0.1961 ( 21)  0.2635 ( 22)  0.1751 ( 27)  0.1524 ( 32)
          -0.1100 ( 46)  0.1044 ( 47) -0.1100 ( 55) -0.1119 ( 56) -0.1226 ( 62)
           0.1323 ( 63) -0.1097 ( 65) -0.1342 ( 67)  0.1354 ( 71)  0.1070 ( 82)
          -0.1132 ( 88) -0.1254 ( 99) -0.1051 (101)  0.1334 (105) -0.1059 (106)
           0.1061 (111) -0.1859 (114) -0.1287 (119) -0.1640 (122)  0.1395 (132)
           0.1537 (135) -0.1561 (136)
 CRD 43=  -0.1790 (  5) -0.1790 (  6)  0.1025 (  8) -0.1554 ( 11) -0.3793 ( 20)
           0.2184 ( 21) -0.1120 ( 51) -0.3384 ( 69)  0.1811 ( 70)  0.1311 ( 71)
          -0.1262 ( 80)  0.2373 ( 87) -0.1726 ( 88) -0.2056 (101)  0.2042 (102)
          -0.1148 (122)  0.2950 (123)  0.1016 (130)
 CRD 44=   0.2508 (  1) -0.1237 (  2)  0.2015 (  3) -0.1713 (  4) -0.1029 (  7)
          -0.1402 (  9) -0.1023 ( 12)  0.1407 ( 13) -0.1573 ( 15)  0.1508 ( 16)
          -0.1619 ( 21)  0.1889 ( 22) -0.1023 ( 35)  0.1168 ( 50)  0.2188 ( 62)
           0.1000 ( 81)  0.1020 ( 82) -0.1421 ( 84) -0.1078 ( 85) -0.1030 ( 88)
          -0.1623 ( 91)  0.1022 ( 97)  0.1225 ( 98)  0.1055 ( 99)  0.1144 (111)
           0.1706 (114) -0.1538 (115) -0.1235 (117)  0.1565 (119) -0.1113 (120)
          -0.1483 (122) -0.1005 (123)  0.1313 (124)  0.1277 (125) -0.1216 (135)
 CRD 45=   0.1096 (  4) -0.1711 (  5) -0.1711 (  6) -0.1017 (  9)  0.1397 ( 10)
           0.1785 ( 12)  0.1010 ( 13) -0.2157 ( 14)  0.1110 ( 16) -0.1179 ( 17)
           0.2230 ( 20)  0.1101 ( 54)  0.1018 ( 55) -0.2253 ( 66) -0.1196 ( 68)
           0.1472 ( 69) -0.1074 ( 70) -0.1344 ( 78) -0.1354 ( 79) -0.1155 ( 87)
           0.1366 ( 88) -0.1223 ( 95) -0.1620 (102)  0.1177 (108)  0.1242 (113)
           0.1281 (116) -0.1187 (117)  0.2117 (122) -0.1322 (125)  0.1007 (127)
           0.1603 (129)  0.1817 (130)  0.1720 (131) -0.1029 (136) -0.1127 (139)
 CRD 46=  -0.2542 (  2)  0.2429 (  4)  0.1119 (  5)  0.1119 (  6) -0.1059 (  9)
           0.1683 ( 17) -0.1764 ( 19)  0.1540 ( 31) -0.1302 ( 33)  0.1738 ( 63)
          -0.2075 ( 64)  0.1852 ( 68) -0.1491 ( 72)  0.1346 ( 75) -0.1011 ( 81)
          -0.1015 ( 91)  0.2335 ( 93) -0.1266 ( 94)  0.1298 (106) -0.1126 (112)
           0.2224 (113) -0.1026 (119) -0.1342 (120)  0.2008 (121) -0.1015 (124)
           0.1184 (128)  0.1664 (134)  0.1133 (136)
 CRD 47=   0.1043 (  4) -0.1511 ( 12)  0.2576 ( 13) -0.2666 ( 18)  0.1651 ( 19)
           0.1007 ( 27) -0.1178 ( 32)  0.1016 ( 42) -0.1232 ( 55) -0.1036 ( 57)
           0.1360 ( 58) -0.1058 ( 73)  0.1113 ( 76)  0.1186 ( 78)  0.1555 ( 81)
           0.1602 ( 95) -0.1253 ( 99) -0.2076 (105) -0.1298 (106) -0.1006 (108)
          -0.1470 (109) -0.1313 (114) -0.1843 (117)  0.1418 (118) -0.1084 (119)
           0.1317 (126) -0.1137 (130)  0.1290 (131) -0.1478 (132) -0.1993 (133)
          -0.1349 (135) -0.1367 (137)  0.1388 (139)
 CRD 48=   0.1098 (  1)  0.1111 (  2) -0.1947 (  3) -0.1391 (  5) -0.1391 (  6)
          -0.1881 ( 11) -0.2236 ( 15)  0.2316 ( 17) -0.1167 ( 25) -0.1142 ( 51)
          -0.1133 ( 59) -0.1280 ( 62)  0.1071 ( 64)  0.1034 ( 65)  0.1902 ( 67)
          -0.1684 ( 72) -0.1072 ( 73)  0.1379 ( 77) -0.1690 ( 84)  0.1178 ( 91)
           0.2121 ( 97) -0.1338 ( 99)  0.1457 (109)  0.1750 (112) -0.1569 (118)
           0.1595 (120)  0.1113 (124)  0.1275 (125)  0.2084 (130)  0.1502 (133)
          -0.1135 (134) -0.1551 (135) -0.1297 (138)
 CRD 49=   0.1681 (  8)  0.2134 (  9) -0.1761 ( 14)  0.2517 ( 16) -0.1439 ( 17)
          -0.1204 ( 39) -0.1047 ( 40) -0.1025 ( 41)  0.2083 ( 53)  0.1055 ( 57)
          -0.2247 ( 67)  0.1124 ( 68) -0.2007 ( 85)  0.1920 ( 98)  0.2021 (106)
          -0.1914 (116) -0.2025 (130)  0.3100 (132)  0.2149 (134) -0.3153 (137)
 CRD 50=   0.1503 (  8) -0.1316 (  9)  0.1334 ( 12) -0.2356 ( 14)  0.2122 ( 17)
          -0.1777 ( 19) -0.1278 ( 25) -0.1510 ( 39)  0.1237 ( 40)  0.1149 ( 51)
           0.1356 ( 52) -0.1195 ( 60) -0.1717 ( 66)  0.1928 ( 68)  0.1381 ( 73)
           0.1764 ( 78) -0.1030 ( 79)  0.1117 ( 81) -0.1080 ( 93) -0.1326 ( 94)
           0.1166 ( 95) -0.1073 (105) -0.1582 (113)  0.1296 (116) -0.1300 (125)
          -0.1680 (128)  0.1110 (130) -0.1505 (132)  0.2392 (134) -0.1281 (137)
          -0.1699 (138)
 CRD 51=  -0.2876 (  5) -0.2876 (  6)  0.1413 ( 10) -0.1741 ( 12)  0.1392 ( 15)
           0.1330 ( 28)  0.1330 ( 38) -0.1098 ( 40)  0.1238 ( 42) -0.1800 ( 51)
          -0.1063 ( 54) -0.1428 ( 57)  0.1002 ( 66)  0.1192 ( 73)  0.1339 ( 79)
          -0.1443 ( 86) -0.1222 ( 90)  0.1695 ( 96) -0.1744 (102) -0.1252 (107)
          -0.1626 (109)  0.1281 (122) -0.1008 (124)  0.2556 (128) -0.1967 (130)
          -0.1299 (133)  0.1244 (134)  0.1127 (135)
 CRD 52=   0.2055 (  1) -0.2377 (  8)  0.1941 (  9) -0.1560 ( 10) -0.1806 ( 24)
          -0.1806 ( 26) -0.1721 ( 28)  0.2188 ( 29)  0.2188 ( 36) -0.1721 ( 38)
           0.1854 ( 43)  0.1854 ( 45) -0.1276 ( 76) -0.1232 ( 77)  0.1187 ( 83)
          -0.1338 ( 87) -0.1339 ( 88) -0.1594 ( 89) -0.2150 ( 92)  0.1515 ( 93)
           0.1015 ( 99)  0.1121 (100)  0.1600 (104)  0.1556 (126)  0.1937 (140)
 CRD 53=   0.1774 (  5)  0.1774 (  6) -0.1306 (  7)  0.1393 ( 13)  0.1180 ( 15)
           0.1438 ( 18) -0.1017 ( 41)  0.1102 ( 55)  0.1043 ( 58) -0.1160 ( 72)
           0.1460 ( 77) -0.2276 ( 78) -0.1806 ( 86) -0.1357 ( 90)  0.1879 ( 96)
           0.1058 (100) -0.1521 (108)  0.1005 (110)  0.1839 (112)  0.1506 (113)
          -0.1528 (118) -0.1227 (122)  0.2688 (124)  0.1576 (125) -0.1112 (132)
          -0.1535 (133)  0.1556 (135)  0.1126 (137)
 CRD 54=   0.1546 (  7) -0.1651 ( 11)  0.1056 ( 30)  0.1056 ( 37) -0.1459 ( 44)
          -0.1459 ( 49)  0.1008 ( 65)  0.1227 ( 72) -0.1547 ( 74) -0.3481 ( 76)
           0.1730 ( 78) -0.1538 ( 79) -0.1100 ( 81) -0.1900 ( 90)  0.1153 ( 91)
           0.1810 ( 93) -0.1481 ( 94)  0.2359 ( 99) -0.1822 (100)  0.2407 (103)
           0.1225 (104)  0.1314 (109) -0.1808 (112) -0.1150 (113)  0.1132 (115)
           0.2115 (124)  0.1677 (125) -0.1984 (126)

 THE DETERMINANT OF THE G MATRIX IS 10**(   -12)


                     --------------------
                     INTERNAL COORDINATES
                     --------------------

                 - - ATOMS - -         COORDINATE      COORDINATE
 NO.   TYPE    I  J  K  L  M  N        (BOHR,RAD)       (ANG,DEG)
 ----------------------------------------------------------------
   1 STRETCH   1  2                     2.9049405       1.5372284
   2 STRETCH   1  7                     2.0518077       1.0857700
   3 STRETCH   1  9                     2.0580485       1.0890724
   4 STRETCH   1  8                     2.0502422       1.0849415
   5 STRETCH   2  3                     2.6716595       1.4137814
   6 STRETCH   2  3                     2.6716595       1.4137814
   7 STRETCH   2 20                     3.7983493       2.0100000
   8 STRETCH   2  6                     2.9392918       1.5554063
   9 STRETCH   3  4                     2.8903879       1.5295275
  10 STRETCH   3 10                     2.0411972       1.0801551
  11 STRETCH   3 17                     3.9306300       2.0800000
  12 STRETCH   4 12                     2.0563773       1.0881881
  13 STRETCH   4 11                     2.0574060       1.0887325
  14 STRETCH   4  5                     2.9333954       1.5522861
  15 STRETCH   5 14                     2.0550732       1.0874980
  16 STRETCH   5 13                     2.0536272       1.0867328
  17 STRETCH   5  6                     2.9314521       1.5512577
  18 STRETCH   6 15                     2.0520737       1.0859107
  19 STRETCH   6 16                     2.0553064       1.0876214
  20 STRETCH  17 20                     3.7416573       1.9799999
  21 STRETCH  17 19                     2.1785439       1.1528359
  22 STRETCH  17 18                     2.1782397       1.1526749
  23 BEND      1  2 20                  1.5041965      86.1841087
  24 BEND      1  2  3                  2.1061775     120.6750838
  25 BEND      1  2  6                  2.0942670     119.9926597
  26 BEND      1  2  3                  2.1061775     120.6750838
  27 BEND      2  6 15                  1.9400674     111.1576736
  28 BEND      2  3  4                  1.9524197     111.8654100
  29 BEND      2  3 10                  2.1185411     121.3834663
  30 BEND      2  3 17                  1.2465953      71.4246499
  31 BEND      2  1  7                  1.9312198     110.6507429
  32 BEND      2  6 16                  1.9234878     110.2077303
  33 BEND      2  1  8                  1.9460951     111.5030338
  34 BEND      2 20 17                  1.1142734      63.8431615
  35 BEND      2  1  9                  1.8930031     108.4610859
  36 BEND      2  3 10                  2.1185411     121.3834663
  37 BEND      2  3 17                  1.2465953      71.4246499
  38 BEND      2  3  4                  1.9524197     111.8654100
  39 BEND      2  6  5                  1.8272041     104.6910810
  40 BEND      3  4  5                  1.8098059     103.6942385
  41 BEND      3  4 11                  1.9650517     112.5891692
  42 BEND      3  4 12                  1.9319327     110.6915892
  43 BEND      3  2  6                  1.8897568     108.2750889
  44 BEND      3  2 20                  2.2076220     126.4874246
  45 BEND      3  2  6                  1.8897568     108.2750889
  46 BEND      3 17 18                  1.8479040     105.8771026
  47 BEND      3 17 19                  1.8542121     106.2385261
  48 BEND      3 17 20                  1.7135314      98.1781162
  49 BEND      3  2 20                  2.2076220     126.4874246
  50 BEND      4  3 17                  1.9698986     112.8668766
  51 BEND      4  3 10                  2.1245198     121.7260154
  52 BEND      4  5 13                  1.9637683     112.5156360
  53 BEND      4  5  6                  1.8428590     105.5880403
  54 BEND      4  5 14                  1.9111140     109.4987661
  55 BEND      5  6 16                  1.9580238     112.1865026
  56 BEND      5  6 15                  1.9344907     110.8381555
  57 BEND      5  4 11                  1.9392159     111.1088862
  58 BEND      5  4 12                  1.9456515     111.4776172
  59 BEND      6  5 13                  1.9515214     111.8139394
  60 BEND      6  5 14                  1.9124338     109.5743853
  61 BEND      6  2 20                  1.5957039      91.4271006
  62 BEND      7  1  8                  1.9016908     108.9588542
  63 BEND      7  1  9                  1.8919801     108.4024733
  64 BEND      8  1  9                  1.8988171     108.7942048
  65 BEND     10  3 17                  1.8360016     105.1951454
  66 BEND     11  4 12                  1.8734930     107.3432423
  67 BEND     13  5 14                  1.8818408     107.8215336
  68 BEND     15  6 16                  1.8813470     107.7932438
  69 BEND     18 17 19                  2.2887645     131.1365468
  70 BEND     18 17 20                  1.8273012     104.6966492
  71 BEND     19 17 20                  1.8507260     106.0387876
  72 TORSION   1  2  6 15              -1.9276727    -110.4475123
  73 TORSION   1  2  6  5               2.2659562     129.8297261
  74 TORSION   1  2  3 17               1.8794652     107.6854258
  75 TORSION   1  2 20 17              -2.1523244    -123.3191059
  76 TORSION   1  2  3 10               0.1894866      10.8567848
  77 TORSION   1  2  3  4              -2.5210259    -144.4441448
  78 TORSION   1  2  6 16               0.1570728       8.9996067
  79 TORSION   2  3  4 11              -1.8333384    -105.0425540
  80 TORSION   2 20 17 18              -1.9251817    -110.3047845
  81 TORSION   2  3  4 12               2.3528349     134.8075080
  82 TORSION   2 20 17 19               1.8876477     108.1542445
  83 TORSION   2 20 17  3              -0.0250362      -1.4344676
  84 TORSION   2  6  5 13               2.5471118     145.9387555
  85 TORSION   2  6  5 14              -1.6506609     -94.5759010
  86 TORSION   2  6  5  4               0.4060166      23.2630397
  87 TORSION   2  3 17 18               1.9169103     109.8308692
  88 TORSION   2  3 17 19              -1.8761284    -107.4942393
  89 TORSION   2  3 17 20               0.0337079       1.9313220
  90 TORSION   2  3  4  5               0.2643553      15.1464436
  91 TORSION   3  2  1  8              -2.9958291    -171.6483633
  92 TORSION   3  2 20 17               0.0453591       2.5988847
  93 TORSION   3  2  1  9               1.1969047      68.5775871
  94 TORSION   3  2  6 15               1.8389544     105.3643266
  95 TORSION   3  2  6 16              -2.3594854    -135.1885545
  96 TORSION   3  4  5  6              -0.4068200     -23.3090701
  97 TORSION   3  4  5 13              -2.5400690    -145.5352325
  98 TORSION   3  4  5 14               1.6507433      94.5806248
  99 TORSION   3  2  1  7              -0.8762452     -50.2051495
 100 TORSION   3  2  6  5              -0.2506020     -14.3584350
 101 TORSION   4  3 17 19               2.5475893     145.9661149
 102 TORSION   4  3 17 18               0.0574427       3.2912234
 103 TORSION   4  3  2  6              -0.0095233      -0.5456467
 104 TORSION   4  3  2 20               1.8418103     105.5279585
 105 TORSION   4  5  6 16               2.4918584     142.7729720
 106 TORSION   4  5  6 15              -1.6872727     -96.6736034
 107 TORSION   4  3 17 20              -1.8257597    -104.6083237
 108 TORSION   5  4  3 17               1.6304454      93.4176429
 109 TORSION   5  4  3 10              -2.4444648    -140.0575171
 110 TORSION   5  6  2 20              -2.5089586    -143.7527398
 111 TORSION   6  2 20 17               2.0370505     116.7143954
 112 TORSION   6  2  1  8               0.8481033      48.5927411
 113 TORSION   6  2  1  9              -1.2423482     -71.1813084
 114 TORSION   6  2  1  7               2.9676873     170.0359549
 115 TORSION   6  2  3 17              -1.8922175    -108.4160761
 116 TORSION   6  5  4 11               1.7083288      97.8800297
 117 TORSION   6  5  4 12              -2.4859093    -142.4321102
 118 TORSION   6  2  3 10               2.7009892     154.7552829
 119 TORSION   7  1  2 20               1.4065685      80.5904375
 120 TORSION   8  1  2 20              -0.7130155     -40.8527763
 121 TORSION   9  1  2 20              -2.8034670    -160.6268258
 122 TORSION  10  3 17 19               0.1930575      11.0613807
 123 TORSION  10  3 17 18              -2.2970891    -131.6135108
 124 TORSION  10  3  4 12              -0.3559853     -20.3964527
 125 TORSION  10  3  4 11               1.7410268      99.7534853
 126 TORSION  10  3  2 20              -1.7308624     -99.1711119
 127 TORSION  10  3 17 20               2.1028938     120.4869421
 128 TORSION  11  4  3 17              -0.4672483     -26.7713547
 129 TORSION  11  4  5 14              -2.5172932    -144.2302753
 130 TORSION  11  4  5 13              -0.4249202     -24.3461326
 131 TORSION  12  4  3 17              -2.5642603    -146.9212927
 132 TORSION  12  4  5 14              -0.4283460     -24.5424152
 133 TORSION  12  4  5 13               1.6640271      95.3417275
 134 TORSION  13  5  6 15               0.4538225      26.0021124
 135 TORSION  13  5  6 16              -1.6502317     -94.5513123
 136 TORSION  14  5  6 15               2.5392351     145.4874559
 137 TORSION  14  5  6 16               0.4351809      24.9340312
 138 TORSION  15  6  2 20              -0.4194022     -24.0299781
 139 TORSION  16  6  2 20               1.6653433      95.4171408
 140 TORSION  17  3  2 20              -0.0408838      -2.3424709

     ------------------------------------------
     THE POINT GROUP IS C1 , NAXIS= 0, ORDER= 1
     ------------------------------------------

     DIMENSIONS OF THE SYMMETRY SUBSPACES ARE
 A   =   48

 ..... DONE SETTING UP THE RUN .....
 STEP CPU TIME =     0.09 TOTAL CPU TIME =          0.1 (      0.0 MIN)
 TOTAL WALL CLOCK TIME=          0.1 SECONDS, CPU UTILIZATION IS    81.82%


          -----------------------------
          STATIONARY POINT LOCATION RUN
          -----------------------------

 OBTAINING INITIAL HESSIAN, HESS=CALC    

     ---------------------------------
     HESSIAN MATRIX CONTROL PARAMETERS
     ---------------------------------
     METHOD=ANALYTIC   NVIB  =       2   VIBSIZ= 0.01000
     RDHESS=       F   PURIFY=       F   PRTIFC=       F
     VIBANL=       F   DECOMP=       F   PROJCT=       F
     SCLFAC= 1.00000   PRTSCN=       F   NPRT  =       0
     PULCOR=       F   NPUN  =       0   REDOVB=       T
     HSSTYP=GENERAL 
 Old integral subroutine is used

     ------------------------------
     CPHF RESPONSE SOLUTION OPTIONS
     ------------------------------
     POLAR  =       F     NWORD  =       0
     CPHF   =AO      

          ********************
          1 ELECTRON INTEGRALS
          ********************
 ...... END OF ONE-ELECTRON INTEGRALS ......
 STEP CPU TIME =     0.02 TOTAL CPU TIME =          0.1 (      0.0 MIN)
 TOTAL WALL CLOCK TIME=          0.1 SECONDS, CPU UTILIZATION IS    78.57%

          -------------
          GUESS OPTIONS
          -------------
          GUESS =HUCKEL            NORB  =       0          NORDER=       0
          MIX   =       F          PRTMO =       F          PUNMO =       F
          TOLZ  = 1.0E-08          TOLE  = 1.0E-05
          SYMDEN=       F          PURIFY=       F

 INITIAL GUESS ORBITALS GENERATED BY HUCKEL   ROUTINE.
 HUCKEL GUESS REQUIRES     39252 WORDS.

 SYMMETRIES FOR INITIAL GUESS ORBITALS FOLLOW.   BOTH SET(S).
    27 ORBITALS ARE OCCUPIED (    7 CORE ORBITALS).
     8=A        9=A       10=A       11=A       12=A       13=A       14=A   
    15=A       16=A       17=A       18=A       19=A       20=A       21=A   
    22=A       23=A       24=A       25=A       26=A       27=A       28=A   
    29=A       30=A       31=A       32=A       33=A       34=A       35=A   
    36=A       37=A   
 ...... END OF INITIAL ORBITAL SELECTION ......
 STEP CPU TIME =     0.04 TOTAL CPU TIME =          0.2 (      0.0 MIN)
 TOTAL WALL CLOCK TIME=          0.2 SECONDS, CPU UTILIZATION IS    83.33%

                    ----------------------
                    AO INTEGRAL TECHNOLOGY
                    ----------------------
     S,P,L SHELL ROTATED AXIS INTEGRALS, REPROGRAMMED BY
        KAZUYA ISHIMURA (IMS) AND JOSE SIERRA (SYNSTAR).
     S,P,D,L SHELL ROTATED AXIS INTEGRALS PROGRAMMED BY
        KAZUYA ISHIMURA (INSTITUTE FOR MOLECULAR SCIENCE).
     S,P,D,F,G SHELL TO TOTAL QUARTET ANGULAR MOMENTUM SUM 5,
        ERIC PROGRAM BY GRAHAM FLETCHER (ELORET AND NASA ADVANCED
        SUPERCOMPUTING DIVISION, AMES RESEARCH CENTER).
     S,P,D,F,G,L SHELL GENERAL RYS QUADRATURE PROGRAMMED BY
        MICHEL DUPUIS (PACIFIC NORTHWEST NATIONAL LABORATORY).

          --------------------
          2 ELECTRON INTEGRALS
          --------------------

 THE -PK- OPTION IS OFF, THE INTEGRALS ARE NOT IN SUPERMATRIX FORM.
 STORING   15000 INTEGRALS/RECORD ON DISK, USING 12 BYTES/INTEGRAL.
 TWO ELECTRON INTEGRAL EVALUATION REQUIRES   89734 WORDS OF MEMORY.
 SCHWARZ INEQUALITY OVERHEAD:      1164 INTEGRALS, T=        0.00
 II,JST,KST,LST =  1  1  1  1 NREC =         1 INTLOC =    1
 II,JST,KST,LST =  2  1  1  1 NREC =         1 INTLOC =    2
 II,JST,KST,LST =  3  1  1  1 NREC =         1 INTLOC =   34
 II,JST,KST,LST =  4  1  1  1 NREC =         1 INTLOC =  142
 II,JST,KST,LST =  5  1  1  1 NREC =         1 INTLOC = 1361
 II,JST,KST,LST =  6  1  1  1 NREC =         1 INTLOC = 1952
 II,JST,KST,LST =  7  1  1  1 NREC =         1 INTLOC = 6834
 II,JST,KST,LST =  8  1  1  1 NREC =         1 INTLOC = 8483
 II,JST,KST,LST =  9  1  1  1 NREC =         2 INTLOC = 5756
 II,JST,KST,LST = 10  1  1  1 NREC =         2 INTLOC = 9287
 II,JST,KST,LST = 11  1  1  1 NREC =         4 INTLOC = 4234
 II,JST,KST,LST = 12  1  1  1 NREC =         4 INTLOC =11222
 II,JST,KST,LST = 13  1  1  1 NREC =         7 INTLOC =11274
 II,JST,KST,LST = 14  1  1  1 NREC =         8 INTLOC =10394
 II,JST,KST,LST = 15  1  1  1 NREC =         9 INTLOC =10880
 II,JST,KST,LST = 16  1  1  1 NREC =        10 INTLOC =13213
 II,JST,KST,LST = 17  1  1  1 NREC =        12 INTLOC = 2352
 II,JST,KST,LST = 18  1  1  1 NREC =        13 INTLOC = 7891
 II,JST,KST,LST = 19  1  1  1 NREC =        15 INTLOC =  337
 II,JST,KST,LST = 20  1  1  1 NREC =        16 INTLOC = 9520
 II,JST,KST,LST = 21  1  1  1 NREC =        18 INTLOC = 6198
 II,JST,KST,LST = 22  1  1  1 NREC =        20 INTLOC = 5183
 II,JST,KST,LST = 23  1  1  1 NREC =        22 INTLOC = 6519
 II,JST,KST,LST = 24  1  1  1 NREC =        24 INTLOC = 3511
 II,JST,KST,LST = 25  1  1  1 NREC =        34 INTLOC =13618
 II,JST,KST,LST = 26  1  1  1 NREC =        38 INTLOC =  743
 II,JST,KST,LST = 27  1  1  1 NREC =        41 INTLOC = 5186
 SCHWARZ INEQUALITY TEST SKIPPED        7905 INTEGRAL BLOCKS.
 TOTAL NUMBER OF NONZERO TWO-ELECTRON INTEGRALS =              658869
         44 INTEGRAL RECORDS WERE STORED ON DISK FILE  8.
  ...... END OF TWO-ELECTRON INTEGRALS .....
 STEP CPU TIME =     0.23 TOTAL CPU TIME =          0.4 (      0.0 MIN)
 TOTAL WALL CLOCK TIME=          0.4 SECONDS, CPU UTILIZATION IS    92.68%

          --------------------------
                 RHF SCF CALCULATION
          --------------------------

     NUCLEAR ENERGY =       303.0631370807
     MAXIT =   30     NPUNCH=    2
     EXTRAP=T  DAMP=F  SHIFT=F  RSTRCT=F  DIIS=F  DEM=F  SOSCF=T
     DENSITY MATRIX CONV=  1.00E-05
     SOSCF WILL OPTIMIZE     567 ORBITAL ROTATIONS, SOGTOL=   0.250
     MEMORY REQUIRED FOR RHF ITERS=     49068 WORDS.

 ITER EX DEM     TOTAL ENERGY        E CHANGE  DENSITY CHANGE     ORB. GRAD
   1  0  0     -255.8127531255  -255.8127531255   0.325106205   0.000000000
          ---------------START SECOND ORDER SCF---------------
   2  1  0     -256.1495863507    -0.3368332252   0.077150341   0.022783637
   3  2  0     -256.1651778649    -0.0155915142   0.037427066   0.008636822
   4  3  0     -256.1673576339    -0.0021797690   0.005045235   0.001177747
   5  4  0     -256.1674091228    -0.0000514890   0.000966043   0.000355755
   6  5  0     -256.1674126503    -0.0000035275   0.000594620   0.000099636
   7  6  0     -256.1674132954    -0.0000006451   0.000162535   0.000041128
   8  7  0     -256.1674133461    -0.0000000506   0.000045988   0.000009451
   9  8  0     -256.1674133525    -0.0000000064   0.000010853   0.000003371
  10  9  0     -256.1674133530    -0.0000000004   0.000003914   0.000000717
  11 10  0     -256.1674133530    -0.0000000000   0.000001438   0.000000263

          -----------------
          DENSITY CONVERGED
          -----------------
     TIME TO FORM FOCK OPERATORS=       0.2 SECONDS (       0.0 SEC/ITER)
     TIME TO SOLVE SCF EQUATIONS=       0.0 SECONDS (       0.0 SEC/ITER)

 FINAL RHF ENERGY IS     -256.1674133530 AFTER  11 ITERATIONS

          ------------
          EIGENVECTORS
          ------------

                      1          2          3          4          5
                  -11.1077   -11.0643   -11.0609   -11.0528   -11.0509
                     A          A          A          A          A   
    1  C  1  S   -0.002965   0.991946   0.002786   0.000210  -0.000097
    2  C  1  S   -0.005424   0.037763   0.000265  -0.000031  -0.000015
    3  C  1  X   -0.003274  -0.000042   0.000030  -0.000027   0.000010
    4  C  1  Y    0.001425   0.000093   0.000069   0.000030   0.000014
    5  C  1  Z    0.001837   0.000239  -0.000066   0.000000   0.000028
    6  C  2  S    0.992314   0.003930   0.003982   0.000543   0.000830
    7  C  2  S    0.034500  -0.005502  -0.005437   0.000200   0.000058
    8  C  2  X    0.001533   0.003415  -0.002258   0.000063  -0.000113
    9  C  2  Y   -0.000673  -0.001507  -0.002650  -0.000006  -0.000053
   10  C  2  Z    0.001132  -0.002160   0.002370   0.000070  -0.000034
   11  C  3  S    0.002426  -0.000498  -0.001111  -0.005105  -0.002493
   12  C  3  S   -0.006445   0.000121   0.000120  -0.005961  -0.000541
   13  C  3  X    0.002588  -0.000047  -0.000020  -0.004070  -0.000344
   14  C  3  Y   -0.003225   0.000001   0.000002  -0.000575  -0.000236
   15  C  3  Z    0.001523   0.000094   0.000067   0.001111   0.000134
   16  C  4  S   -0.000528  -0.000186  -0.004379   0.988080   0.087413
   17  C  4  S    0.000113  -0.000037   0.000016   0.037662  -0.002226
   18  C  4  X    0.000016   0.000028   0.000127  -0.000081  -0.000098
   19  C  4  Y   -0.000023   0.000001   0.000102   0.000251  -0.003791
   20  C  4  Z    0.000082   0.000034   0.000078   0.000002   0.001667
   21  C  5  S   -0.000637   0.000152  -0.015531  -0.086482   0.988079
   22  C  5  S    0.000101   0.000017  -0.006105  -0.008810   0.036427
   23  C  5  X    0.000065  -0.000018   0.003870  -0.000119   0.000133
   24  C  5  Y    0.000077   0.000014  -0.000759   0.003768   0.000599
   25  C  5  Z   -0.000184   0.000020   0.001272  -0.001666   0.000035
   26  C  6  S   -0.002987  -0.002789   0.991830   0.002969   0.016859
   27  C  6  S   -0.005431   0.000047   0.037184   0.000671  -0.004942
   28  C  6  X    0.002169  -0.000072  -0.000130   0.000379  -0.003944
   29  C  6  Y    0.002407   0.000096   0.000050   0.000119   0.000595
   30  C  6  Z   -0.002328   0.000042  -0.000059   0.000123  -0.001183
   31  H  7  S    0.000035  -0.006983  -0.000070  -0.000020  -0.000000
   32  H  8  S    0.000028  -0.006949  -0.000074  -0.000004  -0.000014
   33  H  9  S   -0.000079  -0.006999  -0.000019   0.000006   0.000003
   34  H 10  S    0.000092  -0.000122  -0.000071   0.000141  -0.000031
   35  H 11  S    0.000029   0.000008   0.000044  -0.006953  -0.000534
   36  H 12  S   -0.000046  -0.000008  -0.000066  -0.006992  -0.000488
   37  H 13  S   -0.000104   0.000007   0.000231   0.000738  -0.006947
   38  H 14  S   -0.000013   0.000009   0.000186   0.000697  -0.007016
   39  H 15  S    0.000034   0.000040  -0.006997  -0.000014  -0.000033
   40  H 16  S    0.000054  -0.000170  -0.007008  -0.000126   0.000005
   41  B 17  S    0.000311  -0.000004   0.000001   0.000002  -0.000003
   42  B 17  S   -0.001983   0.000055   0.000041   0.000049   0.000016
   43  B 17  X   -0.000041   0.000002  -0.000041  -0.000017   0.000012
   44  B 17  Y   -0.002142   0.000040   0.000003  -0.000035   0.000010
   45  B 17  Z   -0.000754  -0.000001   0.000000   0.000061  -0.000011
   46  H 18  S    0.000069  -0.000021   0.000011   0.000031  -0.000006
   47  H 19  S    0.000094   0.000048  -0.000034  -0.000049  -0.000000
   48  H 20  S   -0.001206  -0.000194  -0.000044   0.000013  -0.000043

                      6          7          8          9         10
                  -11.0280    -7.3792    -1.1037    -0.9851    -0.9314
                     A          A          A          A          A   
    1  C  1  S    0.000539   0.000003  -0.057481  -0.146353  -0.027294
    2  C  1  S    0.000243   0.000126   0.153991   0.409401   0.078322
    3  C  1  X    0.000021  -0.000047   0.036632   0.034618  -0.001396
    4  C  1  Y    0.000037  -0.000036  -0.014038  -0.016220   0.018137
    5  C  1  Z   -0.000067   0.000006  -0.018672  -0.015239  -0.011083
    6  C  2  S   -0.001749   0.000398  -0.132471  -0.101080   0.002336
    7  C  2  S   -0.006763  -0.002211   0.354071   0.288510  -0.005320
    8  C  2  X   -0.002868   0.000522   0.062046  -0.072948  -0.030610
    9  C  2  Y    0.002633   0.001849  -0.013225   0.002492   0.131788
   10  C  2  Z   -0.002341   0.001065   0.016622   0.062006  -0.081817
   11  C  3  S    0.992123   0.000459  -0.111663  -0.017842   0.129821
   12  C  3  S    0.035812  -0.002575   0.284882   0.049885  -0.366609
   13  C  3  X   -0.001014   0.001022  -0.011079  -0.094723  -0.026653
   14  C  3  Y    0.001478   0.001684   0.062281   0.022756  -0.006637
   15  C  3  Z   -0.000580   0.001621  -0.044581   0.001387   0.005887
   16  C  4  S    0.006278   0.000017  -0.089536   0.098057   0.102905
   17  C  4  S   -0.005331   0.000120   0.234346  -0.272399  -0.296306
   18  C  4  X    0.003936   0.000112  -0.044641  -0.011226   0.046741
   19  C  4  Y    0.000543  -0.000081   0.028225  -0.043906   0.051981
   20  C  4  Z   -0.001146   0.000037  -0.005694   0.020979  -0.039412
   21  C  5  S    0.002117  -0.000006  -0.089846   0.115811  -0.068351
   22  C  5  S    0.000114   0.000055   0.234231  -0.322787   0.196113
   23  C  5  X    0.000237  -0.000022  -0.042427   0.002637  -0.058088
   24  C  5  Y    0.000017  -0.000016  -0.026086   0.029975   0.076083
   25  C  5  Z   -0.000158  -0.000018   0.008360  -0.012188  -0.050067
   26  C  6  S    0.001251   0.000014  -0.102760   0.027965  -0.148049
   27  C  6  S    0.000151   0.000077   0.271089  -0.075904   0.427796
   28  C  6  X   -0.000117  -0.000088   0.005748  -0.082176   0.016345
   29  C  6  Y    0.000130   0.000107  -0.039860  -0.008205   0.025418
   30  C  6  Z   -0.000006  -0.000101   0.039963   0.009757  -0.008092
   31  H  7  S   -0.000026  -0.000304   0.029773   0.103792   0.012380
   32  H  8  S   -0.000104   0.000106   0.028478   0.099478   0.031695
   33  H  9  S   -0.000080  -0.000044   0.032031   0.104049   0.023281
   34  H 10  S   -0.006795  -0.000165   0.052507   0.020319  -0.108081
   35  H 11  S   -0.000085  -0.000349   0.043572  -0.066906  -0.080667
   36  H 12  S   -0.000026  -0.000058   0.042432  -0.068539  -0.087053
   37  H 13  S   -0.000136   0.000001   0.042040  -0.081492   0.059664
   38  H 14  S   -0.000032  -0.000017   0.046779  -0.080857   0.056473
   39  H 15  S    0.000009  -0.000257   0.051547  -0.020308   0.120764
   40  H 16  S   -0.000074  -0.000056   0.051587  -0.011948   0.132845
   41  B 17  S    0.000387   0.990872  -0.017969  -0.012286   0.018283
   42  B 17  S   -0.002554   0.036360   0.033704   0.025632  -0.038161
   43  B 17  X   -0.001572   0.000527   0.007335  -0.001863  -0.012989
   44  B 17  Y   -0.000705  -0.000150   0.013645   0.011854  -0.005629
   45  B 17  Z   -0.001792   0.000530   0.010266   0.007969  -0.016474
   46  H 18  S    0.000306  -0.006343   0.009102   0.002909  -0.011951
   47  H 19  S    0.000314  -0.006358   0.007420   0.008654  -0.012578
   48  H 20  S    0.000080  -0.002515   0.013334   0.017848   0.004294

                     11         12         13         14         15
                   -0.8819    -0.7652    -0.6854    -0.6498    -0.6200
                     A          A          A          A          A   
    1  C  1  S   -0.146309   0.012690   0.026068  -0.005168   0.025915
    2  C  1  S    0.427856  -0.039606  -0.081035   0.017008  -0.085054
    3  C  1  X   -0.050142   0.024928   0.117734  -0.106198   0.175994
    4  C  1  Y    0.024430  -0.051718  -0.031565  -0.074769  -0.093175
    5  C  1  Z    0.032136   0.018558  -0.114351  -0.030045  -0.168466
    6  C  2  S    0.068431  -0.023798  -0.117571   0.015364  -0.049228
    7  C  2  S   -0.207884   0.073202   0.399488  -0.048629   0.181040
    8  C  2  X   -0.153232   0.015229   0.003114  -0.082441  -0.236700
    9  C  2  Y    0.063699  -0.140274   0.051310  -0.145368   0.069518
   10  C  2  Z    0.046829   0.113864  -0.056734  -0.097074   0.044417
   11  C  3  S    0.071511  -0.041857   0.101290   0.015481   0.022978
   12  C  3  S   -0.203656   0.125603  -0.332108  -0.046904  -0.073792
   13  C  3  X    0.085224  -0.160470  -0.034725  -0.073120  -0.111761
   14  C  3  Y   -0.037187   0.036008   0.166994  -0.124945  -0.106715
   15  C  3  Z    0.030493   0.018388  -0.213021  -0.101265   0.152753
   16  C  4  S   -0.085103   0.107668  -0.028188   0.000302  -0.009835
   17  C  4  S    0.249644  -0.334674   0.089573  -0.000272   0.029671
   18  C  4  X    0.074322  -0.047417   0.091109   0.051068   0.241815
   19  C  4  Y    0.036408   0.132856   0.067443  -0.091408  -0.058023
   20  C  4  Z   -0.018603  -0.035879  -0.096247  -0.154547   0.140695
   21  C  5  S   -0.082528  -0.122940  -0.004767  -0.006923   0.001088
   22  C  5  S    0.243212   0.384266   0.016485   0.022037  -0.008633
   23  C  5  X    0.073135   0.086154   0.044843   0.075078   0.184541
   24  C  5  Y   -0.033864   0.108867  -0.112440  -0.047952   0.139326
   25  C  5  Z    0.029461  -0.005210   0.061378  -0.179134   0.078667
   26  C  6  S    0.069734   0.082615   0.053083  -0.000876   0.006012
   27  C  6  S   -0.205505  -0.259140  -0.170288   0.002650  -0.021481
   28  C  6  X    0.063909   0.136607  -0.082453   0.027351  -0.152504
   29  C  6  Y    0.026501  -0.030529  -0.177487  -0.066980   0.191372
   30  C  6  Z   -0.000082   0.064948   0.134861  -0.200482   0.015334
   31  H  7  S    0.137315   0.008580  -0.093337   0.086350  -0.097334
   32  H  8  S    0.139301  -0.048701  -0.045527   0.036548  -0.071001
   33  H  9  S    0.138884  -0.018327  -0.079722  -0.071295  -0.130714
   34  H 10  S   -0.054635   0.069031  -0.309998  -0.026628   0.115649
   35  H 11  S    0.079963  -0.162604   0.065784   0.135838   0.031163
   36  H 12  S    0.090414  -0.153943   0.014351  -0.065443   0.215010
   37  H 13  S    0.085099   0.174575  -0.012996   0.141790   0.050388
   38  H 14  S    0.081892   0.187702  -0.010194  -0.096616   0.153072
   39  H 15  S   -0.067893  -0.130572  -0.121695   0.157815  -0.036182
   40  H 16  S   -0.055249  -0.126989  -0.154694  -0.074835   0.166350
   41  B 17  S    0.022883  -0.018459  -0.005117  -0.149907  -0.043060
   42  B 17  S   -0.049571   0.041288   0.014064   0.373672   0.110040
   43  B 17  X   -0.011451  -0.002265  -0.006712   0.015882  -0.040013
   44  B 17  Y   -0.015865   0.006258   0.031905  -0.011955  -0.011896
   45  B 17  Z   -0.012453   0.021624  -0.021920   0.002359   0.018209
   46  H 18  S   -0.015683   0.004512   0.008731   0.205140   0.030621
   47  H 19  S   -0.012873   0.023604  -0.013421   0.192339   0.087636
   48  H 20  S   -0.011031  -0.004755   0.045530   0.091663   0.057522

                     16         17         18         19         20
                   -0.5920    -0.5567    -0.5547    -0.5322    -0.4916
                     A          A          A          A          A   
    1  C  1  S   -0.005442   0.002434   0.001585  -0.000245   0.005637
    2  C  1  S    0.016600  -0.008865  -0.004764   0.000591  -0.022774
    3  C  1  X   -0.139763   0.246120   0.175247   0.135855  -0.159198
    4  C  1  Y    0.120310  -0.041917   0.430309   0.181169   0.155235
    5  C  1  Z   -0.029232   0.411256  -0.099749   0.145224   0.082782
    6  C  2  S    0.035578   0.007024  -0.000117  -0.002425  -0.009192
    7  C  2  S   -0.122542  -0.030392   0.002611   0.012010   0.023889
    8  C  2  X    0.075087   0.056988   0.000446   0.041027   0.202160
[...]
 18   H            X  0.00754728  0.00137278  0.10418750 -0.43193380 -0.42857670
                   Y  0.00176393  0.00064805 -0.04435411  0.17465541  0.16860740
                   Z  0.00181650 -0.00237027 -0.08702338  0.48471310  0.47381259
 19   H            X  0.00474765  0.00423694 -0.07078233  0.40019017 -0.39036283
                   Y  0.00072330  0.00184649 -0.10468584  0.45849185 -0.44556287
                   Z  0.01152705  0.00894478  0.07332332 -0.28928948  0.28752212
 20   H            X -0.00342740  0.00587019 -0.59689804 -0.10981115  0.00708780
                   Y  0.00182612  0.00678866  0.60104957  0.10377210  0.00041822
                   Z -0.00481770  0.00207869 -0.42437172 -0.08078137 -0.00497303

 TRANS. SAYVETZ    X  0.00000012  0.00000006 -0.00000017 -0.00000011  0.00000005
                   Y -0.00000028  0.00000005  0.00000093 -0.00000022  0.00000009
                   Z  0.00000008  0.00000006 -0.00000001 -0.00000027  0.00000004
               TOTAL  0.00000031  0.00000010  0.00000094  0.00000037  0.00000011

   ROT. SAYVETZ    X  0.00017345  0.00023050  0.00006735 -0.00007032  0.00000070
                   Y -0.00018330 -0.00024380  0.00003565 -0.00000331 -0.00003412
                   Z  0.00000904  0.00013014 -0.00002767 -0.00005827  0.00000745
               TOTAL  0.00025251  0.00035986  0.00008107  0.00009138  0.00003493

                           51          52          53          54          55
       FREQUENCY:      3572.44     3618.87     3623.40     3628.85     3735.21  
        SYMMETRY:         A           A           A           A           A   
    REDUCED MASS:      1.03885     1.06570     1.06691     1.06984     1.11233
    IR INTENSITY:      0.00984     0.02824     0.05040     0.04038     0.01062

  1   C            X  0.03829300 -0.00000580  0.00013696 -0.00001249  0.00009736
                   Y -0.02265833 -0.00002081  0.00010993  0.00023900  0.00017740
                   Z -0.02700791  0.00006720  0.00004694  0.00015996 -0.00014469
  2   C            X -0.00249496  0.00022340  0.00013046  0.00123272 -0.00042161
                   Y  0.00057621  0.00038768  0.00084142  0.00117020  0.00083513
                   Z  0.00095605 -0.00036649 -0.00091228 -0.00127551 -0.00038764
  3   C            X -0.00013063  0.00149033 -0.00090552  0.00057797 -0.00317507
                   Y  0.00027196 -0.00118797  0.00087786 -0.00049208 -0.00774521
                   Z -0.00004762  0.00112877 -0.00116236  0.00095090  0.01502956
  4   C            X -0.00007990 -0.04272128  0.03198643 -0.01725073 -0.00609896
                   Y  0.00005842  0.02812710 -0.02470875  0.01410652 -0.03706016
                   Z -0.00003172 -0.01393078  0.01074780 -0.00555914 -0.07212367
  5   C            X -0.00006932  0.03591056  0.02838395 -0.03081417 -0.00858797
                   Y -0.00005176  0.02708877  0.02654384 -0.02458512  0.01397357
                   Z  0.00003035 -0.00200481 -0.00306881 -0.00005734  0.03581157
  6   C            X -0.00013149  0.00185226  0.01372295  0.02116436  0.00056761
                   Y -0.00001608 -0.00794964 -0.03071725 -0.03881272 -0.00658735
                   Z  0.00005295  0.00553113  0.02515159  0.03509209 -0.00648414
  7   H            X -0.24830335 -0.00002038 -0.00048380 -0.00010030 -0.00126439
                   Y -0.39839904  0.00026927 -0.00068045  0.00019537 -0.00198871
                   Z  0.21795393 -0.00000862  0.00049199  0.00007439  0.00111938
  8   H            X -0.32552928  0.00009365 -0.00062735  0.00017087  0.00034255
                   Y  0.23754971 -0.00015721  0.00038401 -0.00034584 -0.00025244
                   Z -0.36105229 -0.00003475 -0.00057135  0.00049901  0.00033129
  9   H            X  0.15294537 -0.00005779 -0.00006717 -0.00055243 -0.00002191
                   Y  0.41829406 -0.00020084  0.00000377 -0.00148179 -0.00030088
                   Z  0.44816662 -0.00020912 -0.00011990 -0.00175134 -0.00032754
 10   H            X -0.00057095  0.00360735 -0.00458374  0.00375975  0.03993309
                   Y -0.00173101  0.00953765 -0.00871706  0.00906266  0.08396045
                   Z  0.00295181 -0.01485010  0.01527870 -0.01572417 -0.16355473
 11   H            X  0.00048036  0.16160493 -0.12852258  0.07027967 -0.22341943
                   Y -0.00091401 -0.32703232  0.25722709 -0.13975925  0.43834290
                   Z -0.00088466 -0.29561386  0.23557448 -0.12876775  0.39337859
 12   H            X  0.00033790  0.30764244 -0.23293743  0.12153532  0.30335419
                   Y  0.00002084  0.00048176 -0.00110890  0.00134800 -0.00223978
                   Z  0.00081757  0.45932872 -0.35050388  0.18304051  0.44899854
 13   H            X  0.00063326 -0.24202996 -0.20097889  0.18961677  0.18185573
                   Y -0.00000968 -0.00803744 -0.00652033  0.00460513  0.00728240
                   Z -0.00095945  0.33542629  0.28024396 -0.26534592 -0.24822499
 14   H            X  0.00020970 -0.15377979 -0.13323137  0.13066297 -0.08268796
                   Y  0.00056735 -0.31463853 -0.26535584  0.27043975 -0.16563697
                   Z  0.00053862 -0.30664356 -0.26380390  0.26484192 -0.16496318
 15   H            X  0.00010524 -0.01769730 -0.07201358 -0.09356482  0.01062682
                   Y  0.00017647 -0.01593052 -0.07093407 -0.09559464  0.01135398
                   Z -0.00039193 -0.08493540 -0.37262458 -0.50117629  0.06057621
 16   H            X -0.00031223 -0.02390140 -0.10046525 -0.12659431 -0.01507361
                   Y  0.00112514  0.10181007  0.41529354  0.52373150  0.06382217
                   Z  0.00029251  0.02138399  0.09079255  0.11666265  0.01350065
 17   B            X -0.00002916  0.00014790  0.00016390  0.00049120 -0.00005758
                   Y -0.00009498  0.00009880 -0.00017978 -0.00008292 -0.00003533
                   Z  0.00014895  0.00015441 -0.00014627  0.00005096 -0.00049041
 18   H            X -0.00037407  0.00148495 -0.00216219 -0.00079306 -0.00271207
                   Y  0.00015677 -0.00014714  0.00023595 -0.00000645  0.00056299
                   Z  0.00049259 -0.00081783  0.00164841  0.00082348  0.00143850
 19   H            X  0.00065450 -0.00011432  0.00040442 -0.00019046 -0.00015482
                   Y  0.00077227  0.00006257  0.00050614  0.00018081 -0.00020395
                   Z -0.00052881 -0.00019614 -0.00012940 -0.00031814  0.00034151
 20   H            X -0.00130138  0.00025527 -0.00074014 -0.00070671 -0.00036711
                   Y  0.00323007 -0.00011072  0.00374447  0.00451343 -0.00082863
                   Z  0.00112359 -0.00050889 -0.00144362 -0.00241530 -0.00030556

 TRANS. SAYVETZ    X  0.00000008 -0.00000030  0.00000027 -0.00000026  0.00000000
                   Y -0.00000049  0.00000009 -0.00000050 -0.00000058  0.00000012
                   Z -0.00000053 -0.00000013  0.00000022  0.00000022  0.00000002
               TOTAL  0.00000073  0.00000034  0.00000061  0.00000068  0.00000012

   ROT. SAYVETZ    X -0.00009191  0.00024594  0.00133184  0.00023713 -0.00006548
                   Y  0.00004572 -0.00115929  0.00005839  0.00038599  0.00005056
                   Z  0.00004852  0.00066427 -0.00002312 -0.00023925 -0.00011298
               TOTAL  0.00011354  0.00135856  0.00133332  0.00051231  0.00014002

                           56          57          58          59          60
       FREQUENCY:      3738.17     3740.38     3745.24     3745.76     3770.93  
        SYMMETRY:         A           A           A           A           A   
    REDUCED MASS:      1.09720     1.11189     1.10858     1.10833     1.11073
    IR INTENSITY:      0.14910     0.04947     0.01568     0.01825     0.03348

  1   C            X  0.00231519  0.00235429  0.03463032 -0.04266811 -0.00218017
                   Y  0.00189133  0.00249708  0.02607740 -0.03106408 -0.07458526
                   Z  0.00315480  0.00207990  0.03694520 -0.04642851  0.05345683
  2   C            X  0.00198354  0.00041236 -0.00069140  0.00044433  0.00010240
                   Y -0.00346328 -0.00009930  0.00048571 -0.00062943  0.00014837
                   Z  0.00106558  0.00033902  0.00031844 -0.00026843 -0.00027231
  3   C            X  0.01677671  0.00175162 -0.00035465  0.00103581 -0.00025947
                   Y  0.03897719  0.00394254 -0.00066806  0.00206056  0.00004626
                   Z -0.07172015 -0.00752944  0.00129884 -0.00388351  0.00027747
  4   C            X -0.00549229  0.00153261 -0.00131261 -0.00131092  0.00000212
                   Y -0.00842623  0.01474719 -0.00873337 -0.00687464 -0.00000230
                   Z -0.01637339  0.02673707 -0.01621878 -0.01279665 -0.00009768
  5   C            X -0.00164646 -0.01161018  0.00987931  0.00724662 -0.00001955
                   Y  0.00066933  0.01923842 -0.01876326 -0.01407949  0.00000317
                   Z  0.00367960  0.04916012 -0.04611918 -0.03438215 -0.00003084
  6   C            X  0.00035209  0.00160694  0.00036344  0.00061021  0.00026964
                   Y  0.00370985 -0.04568665 -0.03032239 -0.02700707 -0.00101100
                   Z  0.00530159 -0.04976465 -0.03440629 -0.03020043 -0.00116122
  7   H            X -0.00564202 -0.01025584 -0.10068392  0.11806192  0.35138393
                   Y -0.00890028 -0.01583160 -0.16237665  0.19166843  0.56527692
                   Z  0.00512088  0.00905966  0.09227144 -0.10865910 -0.30923506
  8   H            X -0.01563957 -0.00975411 -0.19514217  0.24656882 -0.35166046
                   Y  0.01184683  0.00742340  0.14702963 -0.18554591  0.25786330
                   Z -0.01644495 -0.01070434 -0.21710101  0.27438451 -0.39200482
  9   H            X -0.00876074 -0.00799640 -0.10955355  0.13432267  0.02400225
                   Y -0.02377252 -0.02141248 -0.29791365  0.36667871  0.06068092
                   Z -0.02545319 -0.02288470 -0.31700777  0.39005227  0.07050527
 10   H            X -0.20188180 -0.01987643  0.00256718 -0.01135968  0.00033953
                   Y -0.41143356 -0.04153058  0.00616107 -0.02217743  0.00102103
                   Z  0.80416884  0.08012214 -0.01316744  0.04339176 -0.00203392
 11   H            X -0.04708084  0.08830249 -0.05341735 -0.04141998 -0.00023381
                   Y  0.09083965 -0.17447648  0.10562732  0.08207694  0.00046885
                   Z  0.08066697 -0.15366210  0.09211804  0.07158078  0.00038961
 12   H            X  0.08544289 -0.11091649  0.06872461  0.05507892  0.00021173
                   Y -0.00030183  0.00164636 -0.00105254 -0.00079333  0.00000434
                   Z  0.12237077 -0.16550683  0.10255806  0.08201616  0.00042226
 13   H            X  0.02031616  0.24858354 -0.23129892 -0.17203676  0.00007739
                   Y  0.00040818  0.01236151 -0.01028479 -0.00761614  0.00003892
                   Z -0.02769675 -0.34244851  0.31676261  0.23557010 -0.00007408
 14   H            X -0.00617178 -0.11529768  0.11932226  0.08989520  0.00027571
                   Y -0.01110824 -0.23944541  0.23642191  0.17754336  0.00037040
                   Z -0.01206495 -0.23005958  0.22889925  0.17187334  0.00037460
 15   H            X -0.01022427  0.09284169  0.06849273  0.05950511  0.00208353
                   Y -0.00932475  0.08796625  0.06060049  0.05323892  0.00204686
                   Z -0.05104246  0.48780180  0.34493234  0.30208762  0.00917501
 16   H            X  0.00897515 -0.10921033 -0.07389972 -0.06573012 -0.00210100
                   Y -0.03767354  0.44825291  0.29892578  0.26655352  0.00910543
                   Z -0.00820913  0.09520156  0.06396302  0.05686944  0.00189037
 17   B            X  0.00116015 -0.00016557 -0.00006345  0.00000193  0.00014205
                   Y -0.00027027  0.00016429  0.00001129  0.00016735 -0.00002632
                   Z  0.00104328  0.00014302 -0.00025384  0.00005602 -0.00000487
 18   H            X -0.00023177  0.00174932 -0.00061232  0.00001255  0.00011301
                   Y -0.00040926 -0.00033013 -0.00011505  0.00039618 -0.00002713
                   Z  0.00204827 -0.00122849  0.00025820  0.00024417 -0.00020260
 19   H            X -0.00263997 -0.00026229 -0.00044998 -0.00076237 -0.00025691
                   Y -0.00151143 -0.00015711 -0.00031262 -0.00050031 -0.00028664
                   Z  0.00195106  0.00032433  0.00069831  0.00083012  0.00008729
 20   H            X  0.00073112  0.00096116  0.00043269  0.00031962 -0.00096053
                   Y  0.00710244 -0.00243207 -0.00272107  0.00054926  0.00150831
                   Z  0.00491431  0.00211726  0.00034823  0.00274092 -0.00044665

 TRANS. SAYVETZ    X  0.00000006 -0.00000002  0.00000003 -0.00000005 -0.00000000
                   Y -0.00000060 -0.00000000 -0.00000003 -0.00000006 -0.00000007
                   Z  0.00000020  0.00000011 -0.00000003  0.00000005  0.00000004
               TOTAL  0.00000064  0.00000011  0.00000005  0.00000009  0.00000008

   ROT. SAYVETZ    X  0.00012635 -0.00006361  0.00001737  0.00001839  0.00002125
                   Y -0.00002180  0.00011434  0.00000004 -0.00002268 -0.00002988
                   Z  0.00001259  0.00008604  0.00005872  0.00002501  0.00000196
               TOTAL  0.00012883  0.00015660  0.00006123  0.00003845  0.00003672

 REFERENCE ON SAYVETZ CONDITIONS - A. SAYVETZ, J.CHEM.PHYS., 7, 383-389(1939).

 NOTE - THE MODES J,K ARE ORTHONORMALIZED ACCORDING TO
 SUM ON I   M(I) * (X(I,J)*X(I,K) + Y(I,J)*Y(I,K) + Z(I,J)*Z(I,K)) = DELTA(J,K)

  MODE FREQ(CM**-1)  SYMMETRY  RED. MASS  IR INTENS.
     1     712.485    A        1.849239    3.896323
     2       4.163    A        3.045322    0.029875
     3       2.692    A        2.860626    0.098703
     4       1.234    A        2.970729    0.047738
     5       0.012    A        4.805115    0.000000
     6       0.057    A        4.812768    0.000049
     7       0.183    A        4.809342    0.001029
     8      22.675    A        1.743737    0.040071
     9     211.871    A        1.870548    0.107948
    10     228.125    A        1.050214    0.006401
    11     324.960    A        2.145401    0.104187
    12     368.566    A        2.222122    0.187748
    13     443.915    A        2.279747    0.206989
    14     551.310    A        1.719046    0.304596
    15     600.275    A        1.918304    0.628608
    16     716.272    A        3.392995    0.385842
    17     753.625    A        2.175602    0.015146
    18     882.661    A        1.888951    0.031253
    19     927.398    A        1.824757    0.049341
    20    1001.926    A        1.878621    0.067076
    21    1025.871    A        1.588270    0.039597
    22    1065.614    A        1.468647    0.159106
    23    1095.142    A        2.172180    0.048245
    24    1132.780    A        1.678284    0.013418
    25    1173.868    A        1.415032    0.010418
    26    1216.082    A        1.352221    0.396934
    27    1244.277    A        1.365703    0.823463
    28    1269.339    A        1.574430    0.073799
    29    1324.204    A        1.863810    0.115239
    30    1368.950    A        1.338940    0.329008
    31    1416.892    A        1.525786    0.308185
    32    1454.964    A        1.161992    2.829965
    33    1475.315    A        1.217551    0.002624
    34    1494.450    A        1.210607    0.018050
    35    1510.390    A        1.426687    0.025184
    36    1529.640    A        1.103563    0.593149
    37    1550.566    A        1.074208    0.029331
    38    1607.794    A        1.917659    0.027619
    39    1622.458    A        1.903412    0.077247
    40    1636.931    A        1.619036    0.042771
    41    1708.052    A        1.294791    0.035160
    42    1774.694    A        2.143054    0.232368
    43    1797.671    A        1.092348    0.003638
    44    1800.266    A        1.085541    0.094771
    45    1810.523    A        1.331695    0.033638
    46    1821.458    A        1.106878    0.007480
    47    1838.959    A        1.117443    0.005503
    48    2894.314    A        1.058791    0.814714
    49    3156.739    A        1.063085    0.463794
    50    3310.133    A        1.134490    0.460706
    51    3572.444    A        1.038849    0.009841
    52    3618.871    A        1.065696    0.028240
    53    3623.401    A        1.066908    0.050401
    54    3628.848    A        1.069841    0.040376
    55    3735.209    A        1.112328    0.010619
    56    3738.174    A        1.097202    0.149100
    57    3740.376    A        1.111890    0.049471
    58    3745.235    A        1.108582    0.015679
    59    3745.760    A        1.108331    0.018252
    60    3770.931    A        1.110726    0.033479

     -------------------------------
     THERMOCHEMISTRY AT T=  298.15 K
     -------------------------------

 USING IDEAL GAS, RIGID ROTOR, HARMONIC NORMAL MODE APPROXIMATIONS.
 P=  1.01325E+05 PASCAL.
 ALL FREQUENCIES ARE SCALED BY   1.00000
 THE MOMENTS OF INERTIA ARE (IN AMU*BOHR**2)
            478.95435           732.95412           928.69863
 THE ROTATIONAL SYMMETRY NUMBER IS  1.0
 THE ROTATIONAL CONSTANTS ARE (IN GHZ)
      3.76463     2.46003     1.94152
   1 IMAGINARY FREQUENCY VIBRATION(S) IS(ARE) EXCLUDED
     FROM THE FOLLOWING THERMOCHEMICAL ANALYSIS.
      8 -     60 VIBRATIONAL MODES ARE USED IN THERMOCHEMISTRY.
 THE HARMONIC ZERO POINT ENERGY IS (SCALED BY   1.000)
        0.212055 HARTREE/MOLECULE    46540.580969 CM**-1/MOLECULE 
      133.066332 KCAL/MOL              556.749533 KJ/MOL

               Q               LN Q
 ELEC.     1.00000E+00       0.000000
 TRANS.    3.70351E+07      17.427377
 ROT.      2.04392E+05      12.227796
 VIB.      5.07184E+01       3.926288
 TOT.      3.83922E+14      33.581461

              E         H         G         CV        CP        S
           KJ/MOL    KJ/MOL    KJ/MOL   J/MOL-K   J/MOL-K   J/MOL-K
 ELEC.      0.000     0.000     0.000     0.000     0.000     0.000
 TRANS.     3.718     6.197   -43.201    12.472    20.786   165.684
 ROT.       3.718     3.718   -30.312    12.472    12.472   114.139
 VIB.     566.959   566.959   547.016    76.528    76.528    66.888
 TOTAL    574.396   576.875   473.503   101.471   109.786   346.711
 VIB. THERMAL CORRECTION E(T)-E(0) = H(T)-H(0) =     10209.731 J/MOL

              E         H         G         CV        CP        S
         KCAL/MOL  KCAL/MOL  KCAL/MOL CAL/MOL-K CAL/MOL-K CAL/MOL-K
 ELEC.      0.000     0.000     0.000     0.000     0.000     0.000
 TRANS.     0.889     1.481   -10.325     2.981     4.968    39.600
 ROT.       0.889     0.889    -7.245     2.981     2.981    27.280
 VIB.     135.507   135.507   130.740    18.291    18.291    15.987
 TOTAL    137.284   137.876   113.170    24.252    26.239    82.866
 VIB. THERMAL CORRECTION E(T)-E(0) = H(T)-H(0) =      2440.184 CAL/MOL
 ......END OF NORMAL COORDINATE ANALYSIS......
 STEP CPU TIME =     0.01 TOTAL CPU TIME =         76.8 (      1.3 MIN)
 TOTAL WALL CLOCK TIME=         77.1 SECONDS, CPU UTILIZATION IS    99.55%
               580000  WORDS OF DYNAMIC MEMORY USED
 EXECUTION OF GAMESS TERMINATED NORMALLY Mon Nov 15 06:24:14 2021
 DDI: 263640 bytes (0.3 MB / 0 MWords) used by master data server.

 ----------------------------------------
 CPU timing information for all processes
 ========================================
 0: 75.416 + 1.355 = 76.771
 ----------------------------------------
 ddikick.x: exited gracefully.
----- accounting info -----
Files used on the master node chemcompute-node-0.novalocal were:
-rw-r--r--. 1 chemcomp chemcomp     1553 Nov 15 06:22 /scratch/306700/342714.F05
-rw-rw-r--. 1 chemcomp chemcomp  8100720 Nov 15 06:23 /scratch/306700/342714.F08
-rw-rw-r--. 1 chemcomp chemcomp 85196800 Nov 15 06:24 /scratch/306700/342714.F10
-rw-rw-r--. 1 chemcomp chemcomp   564960 Nov 15 06:24 /scratch/306700/342714.F18
Mon Nov 15 06:24:17 UTC 2021
0.126u 0.100s 1:20.63 0.2%	0+0k 8+216io 0pf+0w
Finishing Up...
Looking for IR data...
Looking for Raman data...
vibramans not found
Looking for thermodynamics data...
Looking for UV-Vis data...
306700
