----- GAMESS execution script 'rungms' -----
This job is running on host chemcompute-node-0.novalocal
under operating system Linux at Sun Nov 14 02:08:16 UTC 2021
SLURM has assigned the following compute nodes to this run:
chemcompute-node-0
Available scratch disk space (Kbyte units) at beginning of the job is
Filesystem     1K-blocks     Used Available Use% Mounted on
/dev/sda1       62903276 19003916  43899360  31% /
GAMESS temporary binary files will be written to /scratch/306321
GAMESS supplementary output files will be written to /data/slurm/342230
Copying input file 342230.inp to your run's scratch directory...
The generated host list is
chemcompute-node-0.novalocal

 Distributed Data Interface kickoff program.
 Initiating 1 compute processes on 1 nodes to run the following command:
 /data/gamess-2019R1-ddi/gamess.00.x 342230 

          ******************************************************
          *         GAMESS VERSION = 30 JUN 2019 (R1)          *
          *             FROM IOWA STATE UNIVERSITY             *
          * M.W.SCHMIDT, K.K.BALDRIDGE, J.A.BOATZ, S.T.ELBERT, *
          *   M.S.GORDON, J.H.JENSEN, S.KOSEKI, N.MATSUNAGA,   *
          *          K.A.NGUYEN, S.J.SU, T.L.WINDUS,           *
          *       TOGETHER WITH M.DUPUIS, J.A.MONTGOMERY       *
          *         J.COMPUT.CHEM.  14, 1347-1363(1993)        *
          **************** 64 BIT LINUX VERSION ****************

  SINCE 1993, STUDENTS AND POSTDOCS WORKING AT IOWA STATE UNIVERSITY
  AND ALSO IN THEIR VARIOUS JOBS AFTER LEAVING ISU HAVE MADE IMPORTANT
  CONTRIBUTIONS TO THE CODE:
     IVANA ADAMOVIC, CHRISTINE AIKENS, YURI ALEXEEV, POOJA ARORA,
     ANDREY ASADCHEV, ROB BELL, PRADIPTA BANDYOPADHYAY, JONATHAN BENTZ,
     COLLEEN BERTONI, BRETT BODE, KURT BRORSEN, CALEB CARLIN, GALINA CHABAN,
     WEI CHEN, CHEOL HO CHOI, PAUL DAY, ALBERT DEFUSCO, NUWAN DESILVA,
     TIM DUDLEY, DMITRI FEDOROV, ALEX FINDLATER, GRAHAM FLETCHER, 
     MARK FREITAG, KURT GLAESEMANN, ANASTASIA GUNINA,
     DAN KEMP, GRANT MERRILL, NORIYUKI MINEZAWA, JONATHAN MULLIN,
     TAKESHI NAGATA, SEAN NEDD, HEATHER NETZLOFF, BOSILJKA NJEGIC, RYAN OLSON,
     MIKE PAK, BUU PHAM,
     SPENCER PRUITT, LUKE ROSKOP, JIM SHOEMAKER, LYUDMILA SLIPCHENKO,
     TONY SMITH, SAROM SOK LEANG, JIE SONG, TETSUYA TAKETSUGU, SIMON WEBB,
     PENG XU, SOOHAENG YOO, FEDERICO ZAHARIEV

  ADDITIONAL CODE HAS BEEN PROVIDED BY COLLABORATORS IN OTHER GROUPS:
     IOWA STATE UNIVERSITY:
          JOE IVANIC, AARON WEST, LAIMUTIS BYTAUTAS, KLAUS RUEDENBERG
     UNIVERSITY OF TOKYO: KIMIHIKO HIRAO, TAKAHITO NAKAJIMA,
          TAKAO TSUNEDA, MUNEAKI KAMIYA, SUSUMU YANAGISAWA,
          KIYOSHI YAGI, MAHITO CHIBA, SEIKEN TOKURA, NAOAKI KAWAKAMI
     UNIVERSITY OF AARHUS: FRANK JENSEN
     UNIVERSITY OF IOWA: VISVALDAS KAIRYS, HUI LI
     NATIONAL INST. OF STANDARDS AND TECHNOLOGY: WALT STEVENS, DAVID GARMER
     UNIVERSITY OF PISA: BENEDETTA MENNUCCI, JACOPO TOMASI
     UNIVERSITY OF MEMPHIS: HENRY KURTZ, PRAKASHAN KORAMBATH
     UNIVERSITY OF ALBERTA: TOBY ZENG, MARIUSZ KLOBUKOWSKI
     UNIVERSITY OF NEW ENGLAND: MARK SPACKMAN
     MIE UNIVERSITY: HIROAKI UMEDA
     NAT. INST. OF ADVANCED INDUSTRIAL SCIENCE AND TECHNOLOGY: KAZUO KITAURA
     MICHIGAN STATE UNIVERSITY:
          KAROL KOWALSKI, MARTA WLOCH, JEFFREY GOUR, JESSE LUTZ,
          WEI LI, JUN SHEN, J. EMILIANO DEUSTUA, PIOTR PIECUCH
     UNIVERSITY OF MINNESOTA:
          YINAN SHU
     UNIVERSITY OF SILESIA: MONIKA MUSIAL, STANISLAW KUCHARSKI
     FACULTES UNIVERSITAIRES NOTRE-DAME DE LA PAIX:
          OLIVIER QUINET, BENOIT CHAMPAGNE
     UNIVERSITY OF CALIFORNIA - SANTA BARBARA: BERNARD KIRTMAN
     INSTITUTE FOR MOLECULAR SCIENCE:
          KAZUYA ISHIMURA, MICHIO KATOUDA, AND SHIGERU NAGASE
     UNIVERSITY OF NOTRE DAME: ANNA POMOGAEVA, DAN CHIPMAN
     KYUSHU UNIVERSITY:
          HARUYUKI NAKANO,
          FENG LONG GU, JACEK KORCHOWIEC, MARCIN MAKOWSKI, AND YURIKO AOKI,
          HIROTOSHI MORI AND EISAKU MIYOSHI
     PENNSYLVANIA STATE UNIVERSITY:
          TZVETELIN IORDANOV, CHET SWALINA, JONATHAN SKONE,
          SHARON HAMMES-SCHIFFER
     WASEDA UNIVERSITY:
          MASATO KOBAYASHI, TOMOKO AKAMA, TSUGUKI TOUMA,
          TAKESHI YOSHIKAWA, YASUHIRO IKABATA, JUNJI SEINO,
          YUYA NAKAJIMA, HIROMI NAKAI
     NANJING UNIVERSITY: SHUHUA LI
     UNIVERSITY OF NEBRASKA:
          PEIFENG SU, DEJUN SI, NANDUN THELLAMUREGE, YALI WANG, HUI LI
     UNIVERSITY OF ZURICH: ROBERTO PEVERATI, KIM BALDRIDGE
     N. COPERNICUS UNIVERSITY AND JACKSON STATE UNIVERSITY:
          MARIA BARYSZ
     UNIVERSITY OF COPENHAGEN: Jimmy Kromann, CASPER STEINMANN
     TOKYO INSTITUTE OF TECHNOLOGY: HIROYA NAKATA
     NAGOYA UNIVERSITY: YOSHIO NISHIMOTO, STEPHAN IRLE
     MOSCOW STATE UNIVERSITY: VLADIMIR MIRONOV
     A.N.NESMEYANOV INSTITUTE OF ORGANOELEMENT COMPOUNDS OF RUSSIAN ACADEMY OF SCIENCES:
          IGOR S. GERASIMOV

 EXECUTION OF GAMESS BEGUN Sun Nov 14 02:08:16 2021

            ECHO OF THE FIRST FEW INPUT CARDS -
 INPUT CARD>!File created by the GAMESS Input Deck Generator Plugin for Avogadro            
 INPUT CARD> $BASIS GBASIS=STO NGAUSS=3 $END                                                
 INPUT CARD> $CONTRL SCFTYP=RHF RUNTYP=OPTIMIZE NZVAR=1 mult=1  ICHARG=0 $END               
 INPUT CARD> $STATPT hssend=.t. OPTTOL=0.0005 NSTEP=50 $END                                 
 INPUT CARD> $STATPT HESS=calc ihrep=5 $END                                                 
 INPUT CARD> $FORCE nvib=2 $END                                                             
 INPUT CARD> $ZMAT DLC=.t. auto=.t. nonvdw(1)=2,12,3,13,17,2,2,3 $END                       
 INPUT CARD> $ZMAT IFZMAT(1)=1,2,12,1,3,13 fvalue(1)=2.00,2.00 $END                         
 INPUT CARD>                                                                                
 INPUT CARD> $DATA                                                                          
 INPUT CARD>Title                                                                           
 INPUT CARD>C1                                                                              
 INPUT CARD>C     6.0    -0.94794    -0.76206     0.67914                                   
 INPUT CARD>C     6.0    -1.60289     0.39691    -0.11818                                   
 INPUT CARD>C     6.0    -0.49772     1.12931    -0.71393                                   
 INPUT CARD>C     6.0     0.80063     0.66145    -0.12193                                   
 INPUT CARD>C     6.0     0.47469    -0.80199     0.11417                                   
 INPUT CARD>H     1.0    -1.44037    -1.74757     0.53831                                   
 INPUT CARD>H     1.0    -0.93010    -0.52633     1.76508                                   
 INPUT CARD>H     1.0     0.96193     1.15706     0.86132                                   
 INPUT CARD>H     1.0     1.68233     0.82502    -0.77638                                   
 INPUT CARD>H     1.0     1.20391    -1.35668     0.74136                                   
 INPUT CARD>H     1.0     0.42997    -1.29436    -0.88584                                   
 INPUT CARD>B     5.0    -2.07771     1.76378     1.03801                                   
 INPUT CARD>H     1.0    -1.00298     2.28067     0.31288                                   
 INPUT CARD>H     1.0    -1.86952     1.60979     2.19647                                   
 INPUT CARD>H     1.0    -3.10346     2.33252     0.85262                                   
 INPUT CARD>H     1.0    -0.57999     1.69394    -1.64549                                   
 INPUT CARD>C     6.0    -2.85092     0.13835    -1.01963                                   
 INPUT CARD>H     1.0    -3.05707    -0.95076    -1.06978                                   
 INPUT CARD>H     1.0    -2.67140     0.49497    -2.05573                                   
 INPUT CARD>H     1.0    -3.77088     0.63063    -0.64196                                   
 INPUT CARD> $END                                                                           
    1000000 WORDS OF MEMORY AVAILABLE

     BASIS OPTIONS
     -------------
     GBASIS=STO          IGAUSS=       3      POLAR=NONE    
     NDFUNC=       0     NFFUNC=       0     DIFFSP=       F
     NPFUNC=       0      DIFFS=       F     BASNAM=        


     RUN TITLE
     ---------
 Title                                                                           

 THE POINT GROUP OF THE MOLECULE IS C1      
 THE ORDER OF THE PRINCIPAL AXIS IS     0

 ATOM      ATOMIC                      COORDINATES (BOHR)
           CHARGE         X                   Y                   Z
 C           6.0    -1.7913468528       -1.4400845862        1.2833885073
 C           6.0    -3.0290228885        0.7500511418       -0.2233278172
 C           6.0    -0.9405544186        2.1340864552       -1.3491320744
 C           6.0     1.5129713175        1.2499592546       -0.2304142897
 C           6.0     0.8970340291       -1.5155413449        0.2157500160
 H           1.0    -2.7219046209       -3.3024284444        1.0172583965
 H           1.0    -1.7576341412       -0.9946194791        3.3355175464
 H           1.0     1.8177841194        2.1865263514        1.6276587877
 H           1.0     3.1791427209        1.5590617344       -1.4671454623
 H           1.0     2.2750600139       -2.5637534530        1.4009672583
 H           1.0     0.8125254829       -2.4459857295       -1.6739948690
 B           5.0    -3.9263025819        3.3330609026        1.9615544725
 H           1.0    -1.8953573712        4.3098413684        0.5912574670
 H           1.0    -3.5328805286        3.0420619978        4.1507264403
 H           1.0    -5.8646890139        4.4078236609        1.6112181717
 H           1.0    -1.0960221756        3.2010824396       -3.1095252155
 C           6.0    -5.3874576129        0.2614435904       -1.9268213089
 H           1.0    -5.7770246253       -1.7966758801       -2.0215910671
 H           1.0    -5.0482140036        0.9353576721       -3.8847664047
 H           1.0    -7.1259299326        1.1917178996       -1.2131284951

          INTERNUCLEAR DISTANCES (ANGS.)
          ------------------------------

                1 C          2 C          3 C          4 C          5 C     

   1 C       0.0000000    1.5517378 *  2.3917823 *  2.3928207 *  1.5312288 *
   2 C       1.5517378 *  0.0000000    1.4535228 *  2.4180372 *  2.4099142 *
   3 C       2.3917823 *  1.4535228 *  0.0000000    1.5016889 *  2.3154374 *
   4 C       2.3928207 *  2.4180372 *  1.5016889 *  0.0000000    1.5177736 *
   5 C       1.5312288 *  2.4099142 *  2.3154374 *  1.5177736 *  0.0000000  
   6 H       1.1106531 *  2.2485965 *  3.2761460    3.3557973    2.1774919 *
   7 H       1.1113742 *  2.2026545 *  3.0122395    2.8225971 *  2.1851607 *
   8 H       2.7136349 *  2.8487804 *  2.1477339 *  1.1128466 *  2.1525596 *
   9 H       3.3993649    3.3777472    2.2020696 *  1.1101598 *  2.2132861 *
  10 H       2.2333613 *  3.4193586    3.3456778    2.2317601 *  1.1103198 *
  11 H       2.1520087 *  2.7535824 *  2.6008341 *  2.1321679 *  1.1155483 *
  12 B       2.7901677 *  1.8521779 *  2.4429929 *  3.2932406    3.7351575  
  13 H       3.0651887    2.0234269 *  1.6233472 *  2.4625073 *  3.4242936  
  14 H       2.9626462 *  2.6267421 *  3.2531714    3.6611512    3.9557523  
  15 H       3.7752864    2.6345301 *  3.2698126    4.3570795    4.8138985  
  16 H       3.4016508    2.2497304 *  1.0924191 *  2.3007352 *  3.2308543  
  17 C       2.7051600 *  1.5611035 *  2.5715763 *  3.7964874    3.6372275  
  18 H       2.7464082 *  2.1991809 *  3.3171664    4.2871307    3.7278947  
  19 H       3.4684222    2.2148204 *  2.6320523 *  3.9777243    4.0358956  
  20 H       3.4137781    2.2425769 *  3.3117122    4.6010960    4.5441168  

                6 H          7 H          8 H          9 H         10 H     

   1 C       1.1106531 *  1.1113742 *  2.7136349 *  3.3993649    2.2333613 *
   2 C       2.2485965 *  2.2026545 *  2.8487804 *  3.3777472    3.4193586  
   3 C       3.2761460    3.0122395    2.1477339 *  2.2020696 *  3.3456778  
   4 C       3.3557973    2.8225971 *  1.1128466 *  1.1101598 *  2.2317601 *
   5 C       2.1774919 *  2.1851607 *  2.1525596 *  2.2132861 *  1.1103198 *
   6 H       0.0000000    1.8046516 *  3.7831543    4.2541608    2.6807165 *
   7 H       1.8046516 *  0.0000000    2.6889332 *  3.8871527    2.5082828 *
   8 H       3.7831543    2.6889332 *  0.0000000    1.8196945 *  2.5282076 *
   9 H       4.2541608    3.8871527    1.8196945 *  0.0000000    2.7004139 *
  10 H       2.6807165 *  2.5082828 *  2.5282076 *  2.7004139 *  0.0000000  
  11 H       2.3941124 *  3.0768551    3.0569608    2.4641750 *  1.8029550 *
  12 B       3.6035373    2.6627511 *  3.1046320    4.2791567    4.5380945  
  13 H       4.0581826    3.1612411    2.3289820 *  3.2428836    4.2760114  
  14 H       3.7690225    2.3731026 *  3.1630206    4.6978016    4.5125670  
  15 H       4.4172156    3.7052801    4.2319236    5.2754131    5.6723903  
  16 H       4.1657205    4.0846253    2.9916306 *  2.5745807 *  4.2644618  
  17 C       2.8237427 *  3.4476019    4.3719067    4.5914096    4.6666741  
  18 H       2.4154872 *  3.5693940    4.9319786    5.0696539    4.6476822  
  19 H       3.6432766    4.3213156    4.7062332    4.5497950    5.1254607  
  20 H       3.5327255    3.8990292    4.9936429    5.4583290    5.5327670  

               11 H         12 B         13 H         14 H         15 H     

   1 C       2.1520087 *  2.7901677 *  3.0651887    2.9626462 *  3.7752864  
   2 C       2.7535824 *  1.8521779 *  2.0234269 *  2.6267421 *  2.6345301 *
   3 C       2.6008341 *  2.4429929 *  1.6233472 *  3.2531714    3.2698126  
   4 C       2.1321679 *  3.2932406    2.4625073 *  3.6611512    4.3570795  
   5 C       1.1155483 *  3.7351575    3.4242936    3.9557523    4.8138985  
   6 H       2.3941124 *  3.6035373    4.0581826    3.7690225    4.4172156  
   7 H       3.0768551    2.6627511 *  3.1612411    2.3731026 *  3.7052801  
   8 H       3.0569608    3.1046320    2.3289820 *  3.1630206    4.2319236  
   9 H       2.4641750 *  4.2791567    3.2428836    4.6978016    5.2754131  
  10 H       1.8029550 *  4.5380945    4.2760114    4.5125670    5.6723903  
  11 H       0.0000000    4.3979402    4.0337470    4.8189601    5.3536557  
  12 B       4.3979402    0.0000000    1.3957197 *  1.1870491 *  1.1874332 *
  13 H       4.0337470    1.3957197 *  0.0000000    2.1791932 *  2.1693372 *
  14 H       4.8189601    1.1870491 *  2.1791932 *  0.0000000    1.9623658 *
  15 H       5.3536557    1.1874332 *  2.1693372 *  1.9623658 *  0.0000000  
  16 H       3.2445376    3.0739576    2.0876747 *  4.0534708    3.6078025  
  17 C       3.5825685    2.7338176 *  3.1272992    3.6703652    2.8954237 *
  18 H       3.5087523    3.5736049    4.0710164    4.3168368    3.8049575  
  19 H       3.7668077    3.3961116    3.4033312    4.4684494    3.4672418  
  20 H       4.6273323    2.6406728 *  3.3608960    3.5539568    2.3612811 *

               16 H         17 C         18 H         19 H         20 H     

   1 C       3.4016508    2.7051600 *  2.7464082 *  3.4684222    3.4137781  
   2 C       2.2497304 *  1.5611035 *  2.1991809 *  2.2148204 *  2.2425769 *
   3 C       1.0924191 *  2.5715763 *  3.3171664    2.6320523 *  3.3117122  
   4 C       2.3007352 *  3.7964874    4.2871307    3.9777243    4.6010960  
   5 C       3.2308543    3.6372275    3.7278947    4.0358956    4.5441168  
   6 H       4.1657205    2.8237427 *  2.4154872 *  3.6432766    3.5327255  
   7 H       4.0846253    3.4476019    3.5693940    4.3213156    3.8990292  
   8 H       2.9916306 *  4.3719067    4.9319786    4.7062332    4.9936429  
   9 H       2.5745807 *  4.5914096    5.0696539    4.5497950    5.4583290  
  10 H       4.2644618    4.6666741    4.6476822    5.1254607    5.5327670  
  11 H       3.2445376    3.5825685    3.5087523    3.7668077    4.6273323  
  12 B       3.0739576    2.7338176 *  3.5736049    3.3961116    2.6406728 *
  13 H       2.0876747 *  3.1272992    4.0710164    3.4033312    3.3608960  
  14 H       4.0534708    3.6703652    4.3168368    4.4684494    3.5539568  
  15 H       3.6078025    2.8954237 *  3.8049575    3.4672418    2.3612811 *
  16 H       0.0000000    2.8228858 *  3.6690333    2.4453674 *  3.5099116  
  17 C       2.8228858 *  0.0000000    1.1095826 *  1.1103641 *  1.1096399 *
  18 H       3.6690333    1.1095826 *  0.0000000    1.7919191 *  1.7869944 *
  19 H       2.4453674 *  1.1103641 *  1.7919191 *  0.0000000    1.7961084 *
  20 H       3.5099116    1.1096399 *  1.7869944 *  1.7961084 *  0.0000000  

  * ... LESS THAN  3.000


     ATOMIC BASIS SET
     ----------------
 THE CONTRACTED PRIMITIVE FUNCTIONS HAVE BEEN UNNORMALIZED
 THE CONTRACTED BASIS FUNCTIONS ARE NOW NORMALIZED TO UNITY

  SHELL TYPE  PRIMITIVE        EXPONENT          CONTRACTION COEFFICIENT(S)

 C         

      1   S       1            71.6168373    0.154328967295
      1   S       2            13.0450963    0.535328142282
      1   S       3             3.5305122    0.444634542185

      2   L       4             2.9412494   -0.099967229187    0.155916274999
      2   L       5             0.6834831    0.399512826089    0.607683718598
      2   L       6             0.2222899    0.700115468880    0.391957393099

 C         

      3   S       7            71.6168373    0.154328967295
      3   S       8            13.0450963    0.535328142282
      3   S       9             3.5305122    0.444634542185

      4   L      10             2.9412494   -0.099967229187    0.155916274999
      4   L      11             0.6834831    0.399512826089    0.607683718598
      4   L      12             0.2222899    0.700115468880    0.391957393099

 C         

      5   S      13            71.6168373    0.154328967295
      5   S      14            13.0450963    0.535328142282
      5   S      15             3.5305122    0.444634542185

      6   L      16             2.9412494   -0.099967229187    0.155916274999
      6   L      17             0.6834831    0.399512826089    0.607683718598
      6   L      18             0.2222899    0.700115468880    0.391957393099

 C         

      7   S      19            71.6168373    0.154328967295
      7   S      20            13.0450963    0.535328142282
      7   S      21             3.5305122    0.444634542185

      8   L      22             2.9412494   -0.099967229187    0.155916274999
      8   L      23             0.6834831    0.399512826089    0.607683718598
      8   L      24             0.2222899    0.700115468880    0.391957393099

 C         

      9   S      25            71.6168373    0.154328967295
      9   S      26            13.0450963    0.535328142282
      9   S      27             3.5305122    0.444634542185

     10   L      28             2.9412494   -0.099967229187    0.155916274999
     10   L      29             0.6834831    0.399512826089    0.607683718598
     10   L      30             0.2222899    0.700115468880    0.391957393099

 H         

     11   S      31             3.4252509    0.154328967295
     11   S      32             0.6239137    0.535328142282
     11   S      33             0.1688554    0.444634542185

 H         

     12   S      34             3.4252509    0.154328967295
     12   S      35             0.6239137    0.535328142282
     12   S      36             0.1688554    0.444634542185

 H         

     13   S      37             3.4252509    0.154328967295
     13   S      38             0.6239137    0.535328142282
     13   S      39             0.1688554    0.444634542185

 H         

     14   S      40             3.4252509    0.154328967295
     14   S      41             0.6239137    0.535328142282
     14   S      42             0.1688554    0.444634542185

 H         

     15   S      43             3.4252509    0.154328967295
     15   S      44             0.6239137    0.535328142282
     15   S      45             0.1688554    0.444634542185

 H         

     16   S      46             3.4252509    0.154328967295
     16   S      47             0.6239137    0.535328142282
     16   S      48             0.1688554    0.444634542185

 B         

     17   S      49            48.7911132    0.154328967295
     17   S      50             8.8873622    0.535328142282
     17   S      51             2.4052670    0.444634542185

     18   L      52             2.2369561   -0.099967229187    0.155916274999
     18   L      53             0.5198205    0.399512826089    0.607683718598
     18   L      54             0.1690618    0.700115468880    0.391957393099

 H         

     19   S      55             3.4252509    0.154328967295
     19   S      56             0.6239137    0.535328142282
     19   S      57             0.1688554    0.444634542185

 H         

     20   S      58             3.4252509    0.154328967295
     20   S      59             0.6239137    0.535328142282
     20   S      60             0.1688554    0.444634542185

 H         

     21   S      61             3.4252509    0.154328967295
     21   S      62             0.6239137    0.535328142282
     21   S      63             0.1688554    0.444634542185

 H         

     22   S      64             3.4252509    0.154328967295
     22   S      65             0.6239137    0.535328142282
     22   S      66             0.1688554    0.444634542185

 C         

     23   S      67            71.6168373    0.154328967295
     23   S      68            13.0450963    0.535328142282
     23   S      69             3.5305122    0.444634542185

     24   L      70             2.9412494   -0.099967229187    0.155916274999
     24   L      71             0.6834831    0.399512826089    0.607683718598
     24   L      72             0.2222899    0.700115468880    0.391957393099

 H         

     25   S      73             3.4252509    0.154328967295
     25   S      74             0.6239137    0.535328142282
     25   S      75             0.1688554    0.444634542185

 H         

     26   S      76             3.4252509    0.154328967295
     26   S      77             0.6239137    0.535328142282
     26   S      78             0.1688554    0.444634542185

 H         

     27   S      79             3.4252509    0.154328967295
     27   S      80             0.6239137    0.535328142282
     27   S      81             0.1688554    0.444634542185

 TOTAL NUMBER OF BASIS SET SHELLS             =   27
 NUMBER OF CARTESIAN GAUSSIAN BASIS FUNCTIONS =   48
 NUMBER OF ELECTRONS                          =   54
 CHARGE OF MOLECULE                           =    0
 SPIN MULTIPLICITY                            =    1
 NUMBER OF OCCUPIED ORBITALS (ALPHA)          =   27
 NUMBER OF OCCUPIED ORBITALS (BETA )          =   27
 TOTAL NUMBER OF ATOMS                        =   20
 THE NUCLEAR REPULSION ENERGY IS      305.9299133385

     $CONTRL OPTIONS
     ---------------
 SCFTYP=RHF          RUNTYP=OPTIMIZE     EXETYP=RUN     
 MPLEVL=       0     CITYP =NONE         CCTYP =NONE         VBTYP =NONE    
 DFTTYP=NONE         TDDFT =NONE    
 MULT  =       1     ICHARG=       0     NZVAR =       1     COORD =UNIQUE  
 PP    =NONE         RELWFN=NONE         LOCAL =NONE         NUMGRD=       F
 ISPHER=      -1     NOSYM =       0     MAXIT =      30     UNITS =ANGS    
 PLTORB=       F     MOLPLT=       F     AIMPAC=       F     FRIEND=        
 NPRINT=       7     IREST =       0     GEOM  =INPUT   
 NORMF =       0     NORMP =       0     ITOL  =      20     ICUT  =       9
 INTTYP=BEST         GRDTYP=BEST         QMTTOL= 1.0E-06

     $SYSTEM OPTIONS
     ---------------
  REPLICATED MEMORY=     1000000 WORDS (ON EVERY NODE).
 DISTRIBUTED MEMDDI=           0 MILLION WORDS IN AGGREGATE,
 MEMDDI DISTRIBUTED OVER   1 PROCESSORS IS           0 WORDS/PROCESSOR.
 TOTAL MEMORY REQUESTED ON EACH PROCESSOR=     1000000 WORDS.
 TIMLIM=      525600.00 MINUTES, OR     365.0 DAYS.
 PARALL= F  BALTYP=  DLB     KDIAG=    0  COREFL= F
 MXSEQ2=     300 MXSEQ3=     150  mem10=         0

          ----------------
          PROPERTIES INPUT
          ----------------

     MOMENTS            FIELD           POTENTIAL          DENSITY
 IEMOM =       1   IEFLD =       0   IEPOT =       0   IEDEN =       0
 WHERE =COMASS     WHERE =NUCLEI     WHERE =NUCLEI     WHERE =NUCLEI  
 OUTPUT=BOTH       OUTPUT=BOTH       OUTPUT=BOTH       OUTPUT=BOTH    
 IEMINT=       0   IEFINT=       0                     IEDINT=       0
                                                       MORB  =       0
          EXTRAPOLATION IN EFFECT
          SOSCF IN EFFECT
 ORBITAL PRINTING OPTION: NPREO=     1    48     2     1

     -------------------------------
     INTEGRAL TRANSFORMATION OPTIONS
     -------------------------------
     NWORD  =            0
     CUTOFF = 1.0E-09     MPTRAN =       0
     DIRTRF =       F     AOINTS =DUP     

          ----------------------
          INTEGRAL INPUT OPTIONS
          ----------------------
 NOPK  =       1 NORDER=       0 SCHWRZ=       T


 -----------------------------------------------
  STATISTICS ON AUTOMATIC COORDINATE GENERATION 
 -----------------------------------------------
  NUMBER OF USER SPECIFIED BONDS                             4
  NUMBER OF BONDS                                           23
  NUMBER OF ANGLES                                          59
  NUMBER OF TORSIONS                                        60
  NUMBER OF EXTRA COORD.                                     0
  NUMBER OF EXTRA COORD. FOR CONSTRAINTS                     0
  NUMBER OF CONSTRAINED COORD.                               2

  TOTAL NUMBER OF PRIMITIVES                               142
 -----------------------------------------------

   --- ENCODED Z MATRIX ---
 COORD  TYPE   I   J   K   L   M   N
    1      1    2  12
    2      1    3  13
    3      1    1   7
    4      1    1   6
    5      1    1   5
    6      1    1   2
    7      1    2  12
    8      1    2   3
    9      1    2  17
   10      1    2   3
   11      1    2  17
   12      1    3   4
   13      1    3  16
   14      1    4   5
   15      1    4   9
   16      1    4   8
   17      1    5  11
   18      1    5  10
   19      1   12  15
   20      1   12  14
   21      1   17  20
   22      1   17  19
   23      1   17  18
   24      2    1   5  11
   25      2    1   5   4
   26      2    1   5  10
   27      2    1   2  12
   28      2    1   2   3
   29      2    1   2  17
   30      2    1   2   3
   31      2    1   2  17
   32      2    1   2  12
   33      2    2   3   4
   34      2    2   1   6
   35      2    2   1   5
   36      2    2   1   7
   37      2    2   3  13
   38      2    2  17  20
   39      2    2  17  18
   40      2    2   3  16
   41      2    2  12  15
   42      2    2  17  19
   43      2    2  12  14
   44      2    2   3  13
   45      2    2  17  18
   46      2    2   3   4
   47      2    2  17  20
   48      2    2  12  15
   49      2    2  12  14
   50      2    2   3  16
   51      2    2  17  19
   52      2    3   2  17
   53      2    3   2  17
   54      2    3   2  12
   55      2    3   4   8
   56      2    3   4   9
   57      2    3   2  12
   58      2    3   2  17
   59      2    3   2  12
   60      2    3   2  17
   61      2    3   2  12
   62      2    3   4   5
   63      2    4   5  11
   64      2    4   3  16
   65      2    4   3  13
   66      2    4   5  10
   67      2    5   4   8
   68      2    5   4   9
   69      2    5   1   7
   70      2    5   1   6
   71      2    6   1   7
   72      2    8   4   9
   73      2   10   5  11
   74      2   12   2  17
   75      2   12   2  17
   76      2   12   2  17
   77      2   12   2  17
   78      2   13   3  16
   79      2   14  12  15
   80      2   18  17  19
   81      2   18  17  20
   82      2   19  17  20
   83      3    1   2  17  18
   84      3    1   2  17  19
   85      3    1   5   4   3
   86      3    1   2  17  20
   87      3    1   2   3  16
   88      3    1   2   3   4
   89      3    1   2   3  13
   90      3    1   5   4   8
   91      3    1   2  12  14
   92      3    1   2  12  15
   93      3    1   5   4   9
   94      3    2   3   4   8
   95      3    2   3   4   9
   96      3    2   1   5  11
   97      3    2   3   4   5
   98      3    2   1   5   4
   99      3    2   1   5  10
  100      3    3   2  12  14
  101      3    3   4   5  10
  102      3    3   4   5  11
  103      3    3   2  17  19
  104      3    3   2  12  15
  105      3    3   2  17  18
  106      3    3   2  17  20
  107      3    3   2   1   5
  108      3    3   2   1   6
  109      3    3   2   1   7
  110      3    4   3   2  17
  111      3    4   3   2  12
  112      3    4   5   1   6
  113      3    4   5   1   7
  114      3    5   1   2  12
  115      3    5   1   2  17
  116      3    5   4   3  16
  117      3    5   4   3  13
  118      3    6   1   2  12
  119      3    6   1   2  17
  120      3    6   1   5  10
  121      3    6   1   5  11
  122      3    7   1   2  12
  123      3    7   1   2  17
  124      3    7   1   5  10
  125      3    7   1   5  11
  126      3    8   4   5  10
  127      3    8   4   5  11
  128      3    8   4   3  16
  129      3    8   4   3  13
  130      3    9   4   5  10
  131      3    9   4   5  11
  132      3    9   4   3  16
  133      3    9   4   3  13
  134      3   12   2  17  19
  135      3   12   2   3  16
  136      3   12   2  17  18
  137      3   12   2  17  20
  138      3   12   2   3  13
  139      3   13   3   2  17
  140      3   14  12   2  17
  141      3   15  12   2  17
  142      3   16   3   2  17

          INDEP./SYM. INTERNAL COORDINATES
          --------------------------------
 CRD  1=   1.0000 (  1)
 CRD  2=   1.0000 (  2)
 CRD  3=   0.1746 (  6)  0.1379 (  9)  0.1379 ( 11)  0.1686 ( 12)  0.1695 ( 24)
          -0.2214 ( 25) -0.1086 ( 28) -0.1086 ( 30)  0.2036 ( 35) -0.1024 ( 37)
           0.1277 ( 42) -0.1024 ( 44)  0.1277 ( 51)  0.1355 ( 52)  0.1355 ( 53)
          -0.1003 ( 54) -0.1156 ( 55) -0.1003 ( 57)  0.1355 ( 58) -0.1003 ( 59)
           0.1355 ( 60) -0.1003 ( 61)  0.1708 ( 62) -0.1872 ( 69) -0.1034 ( 92)
           0.1360 ( 94)  0.1527 ( 95)  0.1478 ( 97)  0.1289 (100) -0.1957 (110)
           0.2057 (114)  0.2070 (115) -0.1031 (139)
 CRD  4=   0.1313 (  5)  0.2818 (  6) -0.2504 (  8) -0.2504 ( 10) -0.3015 ( 12)
           0.1218 ( 34) -0.2055 ( 35) -0.1355 ( 37) -0.1165 ( 42) -0.1355 ( 44)
          -0.1165 ( 51) -0.1214 ( 52) -0.1214 ( 53) -0.1496 ( 54) -0.1344 ( 56)
          -0.1496 ( 57) -0.1214 ( 58) -0.1496 ( 59) -0.1214 ( 60) -0.1496 ( 61)
          -0.1383 ( 92) -0.1545 (104)  0.1296 (106)  0.1096 (114)  0.1249 (118)
          -0.1002 (123) -0.1091 (134) -0.1442 (136)  0.1732 (140)
 CRD  5=  -0.1961 (  5) -0.2131 (  6) -0.1442 (  8) -0.3612 (  9) -0.1442 ( 10)
          -0.3612 ( 11) -0.1920 ( 12) -0.1389 ( 25) -0.2249 ( 38) -0.1780 ( 41)
          -0.2249 ( 47) -0.1780 ( 48) -0.1090 ( 55)  0.1005 ( 64)  0.1157 ( 66)
           0.1180 ( 79)  0.1251 ( 80)  0.1427 ( 81)  0.1403 ( 82)
 CRD  6=  -0.1380 (  5)  0.1656 (  6)  0.2043 ( 12)  0.1022 ( 18) -0.2446 ( 25)
          -0.1666 ( 33)  0.1970 ( 35) -0.1025 ( 36)  0.1339 ( 38)  0.1000 ( 41)
          -0.1666 ( 46)  0.1339 ( 47)  0.1000 ( 48)  0.2436 ( 62)  0.1597 ( 63)
           0.1003 ( 64)  0.1680 ( 65)  0.1036 ( 66) -0.1362 ( 67) -0.1062 ( 68)
          -0.2241 ( 70) -0.1060 ( 73) -0.1425 ( 79)  0.1178 ( 88) -0.1180 (105)
          -0.1153 (107)  0.1880 (110)  0.1218 (111) -0.1269 (114) -0.2041 (115)
          -0.1262 (123)  0.1260 (142)
 CRD  7=   0.1127 (  4) -0.2769 (  5)  0.3163 (  6)  0.1372 (  8)  0.1372 ( 10)
          -0.2893 ( 12) -0.1209 ( 15) -0.1548 ( 26) -0.1181 ( 33)  0.1477 ( 34)
           0.2570 ( 37)  0.2570 ( 44) -0.1181 ( 46) -0.1429 ( 55)  0.1465 ( 62)
          -0.1091 ( 63) -0.1827 ( 65) -0.1003 ( 68) -0.1289 ( 90) -0.1177 ( 98)
           0.1104 (108) -0.1452 (113)  0.1933 (117)  0.1386 (133)  0.1059 (139)
 CRD  8=  -0.1289 (  4) -0.1296 (  5) -0.1176 (  6)  0.1091 (  9)  0.1091 ( 11)
          -0.3304 ( 12) -0.3211 ( 14) -0.1361 ( 15)  0.1362 ( 26)  0.1349 ( 40)
          -0.1248 ( 41) -0.1248 ( 48)  0.1349 ( 50) -0.1505 ( 56)  0.1226 ( 62)
           0.1338 ( 63) -0.1150 ( 64) -0.1523 ( 66) -0.1751 ( 67)  0.1326 ( 79)
           0.1094 ( 87)  0.1447 ( 88)  0.2330 ( 89) -0.1004 (102) -0.1312 (107)
          -0.1041 (109)  0.1151 (112)  0.1460 (113)  0.1669 (138)  0.1599 (139)
 CRD  9=  -0.4839 (  5)  0.1579 (  6)  0.2069 ( 12) -0.1308 ( 18) -0.1276 ( 24)
           0.1877 ( 25) -0.1743 ( 26)  0.1930 ( 36)  0.1772 ( 55) -0.1269 ( 62)
           0.1452 ( 65) -0.1165 ( 69)  0.1080 ( 73)  0.1488 ( 79) -0.1233 ( 89)
           0.1157 ( 98)  0.1137 ( 99) -0.1468 (102) -0.1194 (109)  0.1043 (112)
           0.1022 (120)  0.1102 (126) -0.1195 (131) -0.1524 (138) -0.1930 (139)
 CRD 10=  -0.6328 ( 14) -0.1178 ( 15) -0.1312 ( 18)  0.1345 ( 24)  0.1068 ( 41)
           0.1068 ( 48)  0.1231 ( 56) -0.1749 ( 63) -0.1278 ( 66) -0.2237 ( 68)
          -0.1164 ( 79) -0.1097 ( 89) -0.1107 ( 93) -0.1029 ( 95)  0.1228 ( 96)
           0.1047 (116)  0.1025 (121)  0.1095 (125)  0.1002 (127)  0.1164 (128)
          -0.1138 (130) -0.1297 (133)
 CRD 11=   0.1177 (  3)  0.1217 (  4)  0.2551 (  5)  0.2710 (  6)  0.1071 (  8)
          -0.1092 (  9)  0.1071 ( 10) -0.1092 ( 11)  0.1052 ( 13) -0.1298 ( 35)
          -0.1407 ( 39)  0.1836 ( 40)  0.1029 ( 41)  0.1012 ( 42) -0.2527 ( 43)
          -0.1407 ( 45)  0.1029 ( 48) -0.2527 ( 49)  0.1836 ( 50)  0.1012 ( 51)
          -0.1342 ( 56)  0.1115 ( 62) -0.1254 ( 64)  0.2082 ( 65) -0.1002 ( 71)
          -0.1111 ( 78) -0.1606 ( 89) -0.1393 (101) -0.1877 (138) -0.1775 (139)
          -0.1389 (140)
 CRD 12=  -0.1535 (  5) -0.2698 ( 12) -0.1192 ( 13)  0.1390 ( 19)  0.1195 ( 20)
          -0.1122 ( 28) -0.1122 ( 30)  0.1021 ( 33) -0.1830 ( 37) -0.1105 ( 38)
           0.1992 ( 40)  0.2328 ( 41) -0.1830 ( 44)  0.1021 ( 46) -0.1105 ( 47)
           0.2328 ( 48)  0.1992 ( 50) -0.2908 ( 64)  0.1070 ( 65)  0.1210 ( 68)
          -0.2631 ( 79) -0.1125 ( 89)  0.1276 ( 95) -0.1107 (138)
 CRD 13=   0.1773 (  3) -0.1346 (  4)  0.1092 (  5)  0.1025 (  9)  0.1025 ( 11)
          -0.1178 ( 12) -0.1083 ( 15)  0.1005 ( 17) -0.1263 ( 19)  0.1689 ( 24)
          -0.1248 ( 25) -0.2067 ( 34)  0.1706 ( 36)  0.1619 ( 38)  0.1008 ( 39)
           0.1423 ( 40) -0.2272 ( 41) -0.1377 ( 42)  0.1008 ( 45)  0.1619 ( 47)
          -0.2272 ( 48)  0.1423 ( 50) -0.1377 ( 51)  0.1634 ( 66)  0.1122 ( 70)
          -0.1089 ( 81) -0.1184 ( 85)  0.1129 ( 92)  0.1792 ( 96)  0.1078 ( 97)
           0.1708 ( 99)  0.1122 (104) -0.1014 (108) -0.1008 (112)  0.1143 (117)
          -0.1141 (118) -0.1062 (119) -0.1253 (138) -0.1050 (139)  0.1183 (141)
 CRD 14=  -0.1743 (  4) -0.1213 (  8) -0.1213 ( 10) -0.1254 ( 13)  0.1711 ( 19)
          -0.2069 ( 20) -0.1073 ( 34)  0.1477 ( 36)  0.1594 ( 38) -0.1750 ( 39)
          -0.1134 ( 40)  0.1635 ( 41) -0.3222 ( 43) -0.1750 ( 45)  0.1594 ( 47)
           0.1635 ( 48) -0.3222 ( 49) -0.1134 ( 50) -0.1060 ( 65)  0.1323 ( 66)
          -0.1388 ( 69)  0.1005 ( 89) -0.1688 ( 91) -0.1029 ( 92)  0.1117 ( 96)
           0.1329 ( 99) -0.1068 (122) -0.1143 (123)  0.1273 (138)  0.1052 (139)
          -0.1207 (140)
 CRD 15=   0.1141 (  8)  0.1141 ( 10)  0.1316 ( 19) -0.2014 ( 20) -0.2668 ( 22)
           0.2227 ( 23)  0.3060 ( 39)  0.1518 ( 41) -0.3789 ( 42) -0.1627 ( 43)
           0.3060 ( 45)  0.1518 ( 48) -0.1627 ( 49) -0.3789 ( 51) -0.1558 ( 81)
           0.1886 ( 82)
 CRD 16=  -0.1370 (  3)  0.1444 (  4)  0.1510 ( 15)  0.2881 ( 21) -0.1478 ( 22)
          -0.1533 ( 23)  0.1352 ( 34) -0.1152 ( 37)  0.3354 ( 38) -0.2240 ( 39)
           0.1129 ( 40) -0.1112 ( 41) -0.1862 ( 42) -0.1152 ( 44) -0.2240 ( 45)
           0.3354 ( 47) -0.1112 ( 48)  0.1129 ( 50) -0.1862 ( 51) -0.1469 ( 64)
           0.2113 ( 80) -0.1148 ( 96) -0.1121 ( 99) -0.1207 (117)
 CRD 17=  -0.2199 (  3) -0.3680 ( 13) -0.2264 ( 15)  0.2087 ( 16) -0.1158 ( 17)
           0.1645 ( 18) -0.1088 ( 19) -0.1740 ( 24)  0.2144 ( 26)  0.1105 ( 37)
           0.1105 ( 44)  0.1348 ( 67) -0.1229 ( 78) -0.1165 ( 87) -0.1887 ( 89)
           0.1443 ( 90)  0.1841 ( 93) -0.1358 ( 94) -0.1008 ( 95) -0.1523 (101)
          -0.1444 (102)  0.1943 (117) -0.1596 (138) -0.1618 (139)
 CRD 18=  -0.2158 ( 13)  0.1702 ( 15) -0.4035 ( 16) -0.1912 ( 17) -0.1634 ( 55)
          -0.1592 ( 63) -0.1107 ( 64)  0.1807 ( 65)  0.1410 ( 66)  0.1106 ( 79)
           0.1380 ( 85) -0.1082 ( 86)  0.1278 ( 88) -0.1224 ( 92) -0.1249 ( 94)
          -0.1411 ( 95) -0.1629 ( 97)  0.1577 (101)  0.1517 (102) -0.1229 (104)
           0.1258 (110)  0.1383 (111) -0.1251 (112) -0.1125 (113) -0.1028 (117)
          -0.1209 (134) -0.1194 (136) -0.1298 (137) -0.1290 (141)
 CRD 19=   0.1248 (  3) -0.2059 ( 13)  0.1095 ( 16)  0.4716 ( 17) -0.2675 ( 18)
          -0.1038 ( 19)  0.1200 ( 24)  0.1674 ( 34) -0.1410 ( 55)  0.2097 ( 56)
           0.1157 ( 63)  0.1808 ( 67) -0.1702 ( 68)  0.1292 ( 69) -0.1303 ( 70)
          -0.1843 ( 90) -0.2132 ( 93) -0.1044 ( 94) -0.1005 ( 95)  0.2091 (112)
           0.1732 (113)  0.1109 (117)
 CRD 20=  -0.1263 (  3) -0.2238 ( 13) -0.1194 ( 16) -0.1288 ( 70)  0.2611 ( 83)
           0.2612 ( 84)  0.2577 ( 86)  0.1303 ( 91)  0.1728 ( 92)  0.1397 (100)
           0.2450 (103)  0.1823 (104)  0.2449 (105)  0.2415 (106)  0.1188 (118)
           0.2350 (134)  0.2350 (136)  0.2316 (137)  0.1218 (140)  0.1643 (141)
 CRD 21=   0.1672 (  3) -0.2177 ( 13)  0.2612 ( 19) -0.3351 ( 20)  0.1105 ( 22)
          -0.1429 ( 83) -0.1389 ( 84) -0.1175 ( 86)  0.2816 ( 91)  0.2403 ( 92)
           0.3037 (100) -0.1437 (103)  0.2624 (104) -0.1478 (105) -0.1223 (106)
          -0.1464 (134) -0.1505 (136) -0.1250 (137)  0.2972 (140)  0.2559 (141)
 CRD 22=   0.2965 (  3) -0.2816 (  4) -0.1490 ( 19) -0.1337 ( 20) -0.1483 ( 22)
          -0.1160 ( 23) -0.1008 ( 36) -0.1061 ( 56) -0.1197 ( 63)  0.1314 ( 66)
           0.2461 ( 69) -0.2129 ( 70)  0.1249 ( 96)  0.1257 ( 99)  0.2264 (108)
           0.2517 (109)  0.2028 (118)  0.2195 (119)  0.1249 (120)  0.1242 (121)
           0.2281 (122)  0.2448 (123)  0.1317 (124)  0.1310 (125)
 CRD 23=   0.1375 ( 19) -0.5249 ( 21) -0.5089 ( 22) -0.5090 ( 23)  0.1323 ( 38)
           0.1285 ( 39)  0.1249 ( 42)  0.1285 ( 45)  0.1323 ( 47)  0.1249 ( 51)
          -0.1310 ( 80) -0.1378 ( 81) -0.1412 ( 82)
 CRD 24=   0.5739 ( 19)  0.5872 ( 20) -0.1325 ( 41) -0.1359 ( 43) -0.1325 ( 48)
          -0.1359 ( 49)  0.3138 ( 79) -0.1013 ( 92)
 CRD 25=   0.1330 (  4) -0.4486 ( 13)  0.2539 ( 15) -0.1407 ( 16) -0.1941 ( 18)
           0.1027 ( 37)  0.1027 ( 44)  0.1100 ( 64) -0.1963 ( 67)  0.1899 ( 68)
          -0.1851 ( 78)  0.2113 ( 94)  0.1946 ( 95)  0.1315 (117)  0.1428 (128)
           0.3244 (129)  0.1261 (132)  0.3078 (133)
 CRD 26=  -0.1031 (  4)  0.5469 ( 15)  0.5581 ( 16) -0.2846 ( 17) -0.1994 ( 18)
          -0.1300 ( 21)  0.1091 ( 23)  0.2113 ( 72) -0.1060 ( 95) -0.1443 (126)
           0.1148 (131) -0.1060 (133)
 CRD 27=  -0.1137 ( 15)  0.1084 ( 18) -0.4763 ( 21)  0.5163 ( 23) -0.1017 ( 39)
          -0.1017 ( 45)  0.3060 ( 80) -0.3101 ( 82)  0.1004 ( 83) -0.2185 ( 84)
           0.1087 ( 86) -0.2169 (103)  0.1020 (105)  0.1103 (106) -0.2154 (134)
           0.1035 (136)  0.1118 (137)
 CRD 28=  -0.3323 (  3) -0.3217 (  4)  0.1498 ( 15)  0.2835 ( 17)  0.3006 ( 18)
          -0.2059 ( 21)  0.4092 ( 22) -0.2211 ( 23) -0.1275 ( 71)  0.1156 ( 73)
           0.1275 ( 80) -0.2368 ( 81)  0.1175 ( 82) -0.1632 ( 86)  0.1098 (105)
          -0.1482 (106)  0.1176 (121)  0.1026 (136) -0.1554 (137)
 CRD 29=  -0.2775 (  3) -0.2861 (  4)  0.1861 ( 15)  0.2792 ( 17)  0.2751 ( 18)
           0.2226 ( 21) -0.4233 ( 22)  0.1798 ( 23) -0.1171 ( 71)  0.1097 ( 73)
          -0.1531 ( 80)  0.2776 ( 81) -0.1160 ( 82) -0.1622 ( 83)  0.1226 ( 86)
          -0.1512 (105)  0.1337 (106) -0.1181 (124) -0.1550 (136)  0.1298 (137)
 CRD 30=   0.3988 (  3)  0.4349 (  4)  0.2267 ( 15)  0.1506 ( 16)  0.2855 ( 17)
           0.4495 ( 18)  0.1805 ( 71)  0.1601 ( 73) -0.1316 (120)  0.1400 (125)
          -0.1407 (127)
 CRD 31=   0.3167 (  3) -0.3162 (  4)  0.1679 ( 15) -0.2765 ( 16) -0.1504 ( 24)
           0.1405 ( 26)  0.1492 ( 63) -0.1394 ( 66) -0.1227 ( 90) -0.1233 ( 93)
          -0.1078 ( 96) -0.1290 (101) -0.1406 (102) -0.1012 (113) -0.1739 (120)
          -0.2006 (121) -0.1848 (124) -0.2116 (125) -0.2178 (126) -0.2295 (127)
          -0.2184 (130) -0.2300 (131)
 CRD 32=   0.1455 (  3) -0.1415 (  4)  0.1512 ( 13)  0.2930 ( 17) -0.2050 ( 18)
          -0.1501 ( 64)  0.1571 ( 78) -0.2359 ( 87)  0.1339 ( 90)  0.1367 ( 93)
           0.1044 (102) -0.1384 (112) -0.1066 (113)  0.1665 (116) -0.1843 (120)
          -0.1786 (121) -0.1525 (124) -0.1468 (125)  0.1316 (126)  0.1410 (127)
           0.1905 (128)  0.1344 (130)  0.1438 (131)  0.1856 (132) -0.2484 (135)
          -0.2511 (142)
 CRD 33=  -0.1090 (  3)  0.1389 ( 13)  0.2371 ( 15) -0.2607 ( 16) -0.2182 ( 17)
           0.1724 ( 18) -0.1040 ( 64)  0.1369 ( 78) -0.1928 ( 87) -0.1244 ( 93)
           0.1133 ( 99) -0.1178 (101)  0.1403 (112)  0.1287 (113)  0.2200 (116)
           0.1257 (117)  0.1686 (120)  0.1543 (121)  0.1570 (124)  0.1427 (125)
          -0.1542 (126) -0.1141 (127)  0.2046 (128)  0.1103 (129) -0.1869 (130)
          -0.1467 (131)  0.2155 (132)  0.1212 (133) -0.2161 (135) -0.2138 (142)
 CRD 34=  -0.1436 (  3)  0.1525 (  4)  0.1420 (  9)  0.1420 ( 11) -0.1724 ( 12)
           0.2308 ( 13) -0.1231 ( 16)  0.1310 ( 17) -0.1472 ( 18)  0.2518 ( 19)
          -0.2348 ( 20)  0.1950 ( 21)  0.1036 ( 22)  0.1031 ( 23)  0.1346 ( 38)
           0.1326 ( 39) -0.1322 ( 40)  0.1278 ( 42)  0.1326 ( 45)  0.1346 ( 47)
          -0.1322 ( 50)  0.1278 ( 51)  0.1538 ( 64)  0.1038 ( 65)  0.1215 ( 69)
           0.1085 ( 72) -0.1656 ( 81) -0.1659 ( 82) -0.1337 ( 89)  0.1143 ( 92)
          -0.1366 (100)  0.1201 (109)  0.1216 (116) -0.1216 (127)  0.1371 (128)
           0.1006 (132) -0.1082 (140)
 CRD 35=  -0.2245 (  6)  0.1048 (  8)  0.1048 ( 10)  0.3142 ( 13)  0.1927 ( 19)
          -0.1775 ( 20)  0.1359 ( 22) -0.1770 ( 23)  0.1070 ( 29)  0.1070 ( 31)
           0.1100 ( 37)  0.1065 ( 43)  0.1100 ( 44)  0.1065 ( 49)  0.1227 ( 71)
          -0.1856 ( 78)  0.1143 ( 81) -0.1381 ( 82)  0.1175 ( 86)  0.1131 ( 87)
          -0.2313 ( 92) -0.1069 ( 94)  0.1128 (100) -0.1971 (104)  0.1685 (106)
          -0.1007 (109) -0.1271 (116)  0.1387 (125) -0.1829 (128) -0.1054 (132)
           0.1126 (133)  0.1020 (135) -0.1441 (139)  0.1913 (140) -0.1186 (141)
 CRD 36=  -0.1888 (  3)  0.1750 ( 13)  0.1691 ( 15) -0.1280 ( 16)  0.1549 ( 17)
          -0.2241 ( 19) -0.1403 ( 20) -0.1979 ( 21)  0.1234 ( 22) -0.1225 ( 41)
          -0.1426 ( 43) -0.1225 ( 48) -0.1426 ( 49) -0.1515 ( 70)  0.2079 ( 79)
          -0.1637 ( 80)  0.1432 ( 84) -0.1237 ( 88)  0.1198 ( 95)  0.1248 ( 97)
          -0.1089 (101) -0.2350 (105) -0.1330 (106)  0.2260 (108)  0.1669 (118)
          -0.1245 (128)  0.1057 (135) -0.1428 (136)  0.1875 (142)
 CRD 37=   0.1118 (  3) -0.1999 (  6) -0.1439 ( 12)  0.1483 ( 16) -0.1931 ( 17)
           0.2966 ( 18)  0.2471 ( 19) -0.3301 ( 20)  0.1069 ( 22)  0.1071 ( 24)
           0.1641 ( 34) -0.1462 ( 41) -0.1462 ( 48)  0.1520 ( 56) -0.1323 ( 93)
           0.1046 ( 94) -0.1709 ( 96) -0.1163 ( 99) -0.1098 (100)  0.1691 (102)
          -0.1166 (123) -0.1037 (124) -0.1583 (125)  0.1887 (127)  0.1247 (128)
 CRD 38=   0.1022 (  3) -0.2077 (  4) -0.2094 (  5)  0.1342 (  6) -0.1213 (  8)
          -0.1213 ( 10)  0.1283 ( 14)  0.1481 ( 15)  0.1531 ( 19)  0.1448 ( 24)
           0.1726 ( 26) -0.1144 ( 36) -0.1879 ( 63) -0.2302 ( 66)  0.1262 ( 67)
           0.1253 ( 68) -0.1557 ( 72) -0.1116 ( 79) -0.1204 ( 91)  0.1447 ( 92)
          -0.1604 ( 94)  0.1206 ( 96) -0.2127 ( 99) -0.1361 (100)  0.1290 (104)
           0.1121 (113) -0.1573 (120)  0.1760 (121)  0.2645 (125)  0.1266 (127)
          -0.1693 (128) -0.1409 (129)  0.1063 (131)  0.1194 (133) -0.1526 (140)
           0.1125 (141)
 CRD 39=  -0.1940 (  5) -0.2246 ( 12)  0.1941 ( 14)  0.2173 ( 15) -0.1466 ( 16)
           0.1316 ( 17)  0.1469 ( 20)  0.1534 ( 21)  0.1487 ( 24)  0.1393 ( 26)
           0.1064 ( 41)  0.1064 ( 48)  0.2542 ( 55) -0.1498 ( 68) -0.1877 ( 73)
          -0.1012 ( 82) -0.1002 ( 84)  0.1759 ( 90) -0.1475 ( 95) -0.2251 (101)
           0.3147 (127) -0.2011 (130) -0.1817 (132) -0.1788 (133)
 CRD 40=  -0.1436 (  5)  0.2152 (  6) -0.1637 ( 13)  0.1546 ( 14)  0.1101 ( 16)
          -0.1256 ( 19)  0.1939 ( 22) -0.1581 ( 34) -0.2178 ( 36)  0.1577 ( 40)
           0.1577 ( 50)  0.1217 ( 56)  0.1551 ( 69)  0.1343 ( 70)  0.1111 ( 73)
          -0.1050 ( 80) -0.1293 ( 82)  0.1653 ( 86) -0.1672 ( 93)  0.1012 ( 94)
          -0.1138 (104)  0.1412 (109) -0.1744 (112)  0.1212 (113) -0.1307 (119)
          -0.2077 (120) -0.1061 (121)  0.1895 (125)  0.1103 (126) -0.1789 (131)
 CRD 41=   0.1566 (  6)  0.1520 (  9)  0.1520 ( 11) -0.1258 ( 13) -0.1031 ( 16)
           0.1501 ( 17) -0.1188 ( 18)  0.2783 ( 19) -0.3025 ( 20) -0.1135 ( 21)
          -0.1738 ( 22) -0.1133 ( 27) -0.1133 ( 32) -0.1063 ( 34) -0.1315 ( 39)
          -0.1444 ( 41)  0.1779 ( 43) -0.1315 ( 45) -0.1444 ( 48)  0.1779 ( 49)
           0.1136 ( 55)  0.1869 ( 82) -0.1512 ( 92)  0.1093 ( 99) -0.1028 (101)
          -0.1066 (102) -0.1342 (104) -0.1420 (111) -0.1019 (112)  0.1052 (124)
          -0.1115 (132) -0.1111 (133)  0.1160 (134) -0.1114 (135) -0.1414 (141)
 CRD 42=   0.1036 (  4) -0.2738 (  8) -0.1521 (  9) -0.2738 ( 10) -0.1521 ( 11)
           0.1540 ( 12) -0.2206 ( 14)  0.1129 ( 15)  0.1565 ( 19)  0.1027 ( 37)
           0.2229 ( 40)  0.1027 ( 44)  0.2229 ( 50) -0.1912 ( 64)  0.1211 ( 66)
          -0.1171 ( 72) -0.1399 ( 79) -0.1750 ( 91)  0.1099 ( 99) -0.1831 (100)
          -0.1011 (116)  0.1174 (117)  0.1211 (122) -0.1299 (125)  0.1184 (126)
          -0.1819 (128)  0.1217 (133) -0.1409 (140)  0.1022 (141)
 CRD 43=  -0.2679 (  9) -0.2679 ( 11)  0.2032 ( 12) -0.1546 ( 13) -0.1348 ( 20)
           0.2622 ( 23)  0.1472 ( 38)  0.1386 ( 42)  0.1022 ( 43)  0.1472 ( 47)
           0.1022 ( 49)  0.1386 ( 51)  0.1096 ( 79) -0.1608 ( 80) -0.2073 ( 81)
          -0.1304 ( 86)  0.1873 ( 91) -0.1532 ( 92)  0.1354 (100)  0.1140 (103)
          -0.2052 (104)  0.1224 (121)  0.1118 (132)  0.1719 (134)  0.1026 (136)
           0.1345 (140) -0.2060 (141)
 CRD 44=   0.1010 (  3) -0.1251 (  5) -0.1755 (  8) -0.1755 ( 10) -0.1233 ( 12)
           0.1509 ( 13) -0.1493 ( 14)  0.1282 ( 15)  0.1277 ( 18) -0.1064 ( 19)
           0.1691 ( 21) -0.1990 ( 22) -0.1119 ( 38) -0.1119 ( 47)  0.1028 ( 54)
           0.1028 ( 57)  0.1028 ( 59)  0.1028 ( 61) -0.1145 ( 71) -0.1330 ( 72)
           0.1301 ( 79)  0.1410 ( 80) -0.1230 ( 81)  0.2291 ( 83)  0.1297 ( 91)
          -0.1192 ( 96)  0.1506 (100) -0.1541 (103) -0.1429 (106) -0.1761 (118)
          -0.2174 (119)  0.1244 (126)  0.1063 (127) -0.1041 (128)  0.1047 (133)
           0.2080 (136)  0.1286 (140)  0.1274 (142)
 CRD 45=   0.1085 (  6) -0.2148 ( 12)  0.2001 ( 13) -0.2308 ( 21)  0.2847 ( 23)
           0.1158 ( 33)  0.1296 ( 38) -0.1288 ( 39) -0.1100 ( 40) -0.1288 ( 45)
           0.1158 ( 46)  0.1296 ( 47) -0.1100 ( 50)  0.1030 ( 70) -0.1801 ( 80)
           0.1878 ( 82)  0.2140 ( 84) -0.1319 ( 86)  0.1006 (100)  0.2435 (103)
          -0.1024 (106) -0.1051 (108)  0.1011 (113)  0.1363 (126)  0.2002 (134)
          -0.1457 (137) -0.1448 (139)
 CRD 46=  -0.2375 (  4)  0.2594 (  5) -0.1436 (  9) -0.1436 ( 11)  0.1543 ( 14)
          -0.1137 ( 16) -0.1275 ( 18)  0.1752 ( 21) -0.1187 ( 22) -0.1291 ( 24)
           0.1258 ( 42)  0.1258 ( 51) -0.1303 ( 68) -0.1560 ( 69)  0.1584 ( 71)
           0.1389 ( 72) -0.1591 ( 81)  0.1353 ( 83)  0.1300 ( 94) -0.1151 ( 95)
          -0.1048 (102) -0.1142 (106) -0.1566 (109)  0.1004 (113) -0.1571 (122)
          -0.2269 (123)  0.1455 (124)  0.1452 (125) -0.1018 (127)  0.1511 (129)
          -0.2024 (132)  0.1003 (136)
 CRD 47=   0.2713 (  3)  0.1106 ( 15) -0.2356 ( 16)  0.1754 ( 22)  0.1013 ( 34)
          -0.1444 ( 56)  0.1141 ( 70) -0.1803 ( 71)  0.1004 ( 72)  0.1736 ( 86)
          -0.1399 ( 88)  0.2029 ( 93)  0.1103 ( 97) -0.1016 (102)  0.1043 (106)
          -0.1572 (108)  0.2091 (112) -0.1668 (118) -0.1753 (119)  0.1752 (120)
           0.1718 (121)  0.1881 (130)  0.1342 (131) -0.1358 (132) -0.1471 (133)
           0.1433 (137)
 CRD 48=   0.1743 (  4) -0.1864 (  6) -0.1132 (  8) -0.1132 ( 10)  0.3130 ( 14)
          -0.1064 ( 17) -0.1939 ( 18) -0.1888 ( 25)  0.1277 ( 35)  0.1210 ( 36)
           0.1173 ( 56) -0.1210 ( 63) -0.1390 ( 70) -0.1536 ( 71)  0.2325 ( 73)
           0.2237 ( 96) -0.1321 ( 99)  0.1054 (101) -0.2124 (113)  0.2759 (121)
          -0.3498 (124)  0.1263 (126)  0.1369 (129) -0.1649 (131)
 CRD 49=   0.2509 (  5)  0.1412 (  8)  0.1412 ( 10) -0.2296 ( 12) -0.1506 ( 14)
           0.2337 ( 15) -0.1365 ( 18) -0.1264 ( 24) -0.1273 ( 25)  0.2242 ( 62)
           0.1574 ( 64)  0.1517 ( 66) -0.2373 ( 72)  0.1152 ( 73)  0.2234 ( 90)
          -0.1781 ( 94) -0.1974 (102)  0.1343 (116)  0.2864 (126) -0.2304 (129)
          -0.2738 (131)  0.1795 (132)
 CRD 50=  -0.1501 (  3)  0.1403 (  5)  0.1287 ( 12) -0.1367 ( 16) -0.2244 ( 17)
           0.1021 ( 18)  0.1073 ( 24) -0.1676 ( 26) -0.1182 ( 35) -0.1131 ( 56)
           0.1436 ( 63) -0.1148 ( 66)  0.1666 ( 67)  0.1021 ( 71) -0.2378 ( 85)
          -0.1406 ( 90)  0.1609 ( 97)  0.2150 ( 98) -0.1048 (107)  0.1067 (108)
           0.1649 (113) -0.1408 (114)  0.1345 (116)  0.1174 (117)  0.1476 (119)
          -0.2474 (120) -0.1524 (121) -0.1159 (124)  0.1764 (126)  0.2965 (130)
           0.1387 (131)
 CRD 51=   0.2084 (  6) -0.1581 (  8) -0.1382 (  9) -0.1581 ( 10) -0.1382 ( 11)
           0.1104 ( 13)  0.1168 ( 22) -0.1075 ( 23) -0.1732 ( 29) -0.1732 ( 31)
           0.1367 ( 33)  0.1077 ( 39)  0.1361 ( 43)  0.1077 ( 45)  0.1367 ( 46)
           0.1361 ( 49)  0.2324 ( 52)  0.2324 ( 53)  0.2324 ( 58)  0.2324 ( 60)
          -0.1064 ( 83) -0.1141 ( 84)  0.1321 (100) -0.1256 (103) -0.1180 (105)
           0.1465 (110)  0.1277 (119)  0.1982 (137) -0.1329 (140) -0.2315 (141)
           0.1203 (142)
 CRD 52=   0.1170 (  4)  0.1175 (  6)  0.2133 (  8) -0.2575 (  9)  0.2133 ( 10)
          -0.2575 ( 11) -0.1315 ( 27) -0.1675 ( 28)  0.1584 ( 29) -0.1675 ( 30)
           0.1584 ( 31) -0.1315 ( 32) -0.1226 ( 34) -0.1304 ( 40) -0.1304 ( 50)
           0.1139 ( 69)  0.1275 ( 74)  0.1275 ( 75)  0.1275 ( 76)  0.1275 ( 77)
          -0.2333 ( 91)  0.1131 ( 98)  0.1263 (104) -0.1262 (107) -0.1113 (111)
          -0.1485 (115) -0.1199 (120)  0.2237 (122) -0.1169 (124) -0.1018 (135)
          -0.1080 (138)  0.1043 (141)
 CRD 53=   0.1053 (  6) -0.1269 (  8) -0.1269 ( 10)  0.1051 ( 22) -0.2935 ( 27)
           0.1635 ( 29)  0.1635 ( 31) -0.2935 ( 32)  0.1043 ( 39) -0.1025 ( 42)
          -0.1292 ( 43)  0.1043 ( 45) -0.1292 ( 49) -0.1025 ( 51)  0.1296 ( 54)
           0.1296 ( 57)  0.1296 ( 59)  0.1296 ( 61) -0.2173 ( 83) -0.1610 ( 84)
           0.1112 ( 87)  0.1046 ( 89) -0.1037 ( 96) -0.1129 ( 99) -0.1624 (110)
          -0.2334 (111) -0.1035 (116)  0.1069 (119)  0.1096 (134) -0.1526 (135)
           0.1981 (137) -0.1592 (138)
 CRD 54=   0.1570 (  5)  0.3566 (  6)  0.1034 ( 27) -0.1182 ( 28)  0.1724 ( 29)
          -0.1182 ( 30)  0.1724 ( 31)  0.1034 ( 32)  0.1128 ( 33)  0.1023 ( 39)
          -0.1584 ( 41)  0.1075 ( 43)  0.1023 ( 45)  0.1128 ( 46) -0.1584 ( 48)
           0.1075 ( 49)  0.1331 ( 54)  0.1331 ( 57)  0.1331 ( 59)  0.1331 ( 61)
          -0.2326 ( 74) -0.2326 ( 75) -0.2326 ( 76) -0.2326 ( 77) -0.1462 ( 91)
           0.1817 (111) -0.1422 (114) -0.1184 (122)  0.1268 (135)  0.1546 (138)

 THE DETERMINANT OF THE G MATRIX IS 10**(   -12)


                     --------------------
                     INTERNAL COORDINATES
                     --------------------

                 - - ATOMS - -         COORDINATE      COORDINATE
 NO.   TYPE    I  J  K  L  M  N        (BOHR,RAD)       (ANG,DEG)
 ----------------------------------------------------------------
   1 STRETCH   2 12                     3.5001087       1.8521779
   2 STRETCH   3 13                     3.0676815       1.6233472
   3 STRETCH   1  7                     2.1001927       1.1113742
   4 STRETCH   1  6                     2.0988301       1.1106531
   5 STRETCH   1  5                     2.8936028       1.5312288
   6 STRETCH   1  2                     2.9323592       1.5517378
   7 STRETCH   2 12                     3.5001087       1.8521779
   8 STRETCH   2  3                     2.7467598       1.4535228
   9 STRETCH   2 17                     2.9500579       1.5611035
  10 STRETCH   2  3                     2.7467598       1.4535228
  11 STRETCH   2 17                     2.9500579       1.5611035
  12 STRETCH   3  4                     2.8377806       1.5016889
  13 STRETCH   3 16                     2.0643727       1.0924191
  14 STRETCH   4  5                     2.8681762       1.5177736
  15 STRETCH   4  9                     2.0978979       1.1101598
  16 STRETCH   4  8                     2.1029751       1.1128466
  17 STRETCH   5 11                     2.1080807       1.1155483
  18 STRETCH   5 10                     2.0982002       1.1103198
  19 STRETCH  12 15                     2.2439235       1.1874332
  20 STRETCH  12 14                     2.2431975       1.1870491
  21 STRETCH  17 20                     2.0969153       1.1096399
  22 STRETCH  17 19                     2.0982839       1.1103641
  23 STRETCH  17 18                     2.0968070       1.1095826
  24 BEND      1  5 11                  1.8807515     107.7591237
  25 BEND      1  5  4                  1.8046928     103.4012813
  26 BEND      1  5 10                  1.9985140     114.5064162
  27 BEND      1  2 12                  1.9162704     109.7942054
  28 BEND      1  2  3                  1.8400571     105.4275036
  29 BEND      1  2 17                  2.1064813     120.6924907
  30 BEND      1  2  3                  1.8400571     105.4275036
  31 BEND      1  2 17                  2.1064813     120.6924907
  32 BEND      1  2 12                  1.9162704     109.7942054
  33 BEND      2  3  4                  1.9164574     109.8049183
  34 BEND      2  1  6                  1.9937349     114.2325952
  35 BEND      2  1  5                  1.7946964     102.8285269
  36 BEND      2  1  7                  1.9288166     110.5130494
  37 BEND      2  3 13                  1.4318225      82.0373878
  38 BEND      2 17 20                  1.9744521     113.1277696
  39 BEND      2 17 18                  1.9147378     109.7063943
  40 BEND      2  3 16                  2.1563829     123.5516419
  41 BEND      2 12 15                  2.0685572     118.5195961
  42 BEND      2 17 19                  1.9351818     110.8777484
  43 BEND      2 12 14                  2.0583918     117.9371626
  44 BEND      2  3 13                  1.4318225      82.0373878
  45 BEND      2 17 18                  1.9147378     109.7063943
  46 BEND      2  3  4                  1.9164574     109.8049183
  47 BEND      2 17 20                  1.9744521     113.1277696
  48 BEND      2 12 15                  2.0685572     118.5195961
  49 BEND      2 12 14                  2.0583918     117.9371626
  50 BEND      2  3 16                  2.1563829     123.5516419
  51 BEND      2 17 19                  1.9351818     110.8777484
  52 BEND      3  2 17                  2.0427605     117.0415576
  53 BEND      3  2 17                  2.0427605     117.0415576
  54 BEND      3  2 12                  1.6497964      94.5263695
  55 BEND      3  4  8                  1.9122724     109.5651406
  56 BEND      3  4  9                  1.9914596     114.1022291
  57 BEND      3  2 12                  1.6497964      94.5263695
  58 BEND      3  2 17                  2.0427605     117.0415576
  59 BEND      3  2 12                  1.6497964      94.5263695
  60 BEND      3  2 17                  2.0427605     117.0415576
  61 BEND      3  2 12                  1.6497964      94.5263695
  62 BEND      3  4  5                  1.7477752     100.1401423
  63 BEND      4  5 11                  1.8699727     107.1415453
  64 BEND      4  3 16                  2.1679817     124.2162003
  65 BEND      4  3 13                  1.8138996     103.9287940
  66 BEND      4  5 10                  2.0136538     115.3738668
  67 BEND      5  4  8                  1.8997950     108.8502351
  68 BEND      5  4  9                  1.9870343     113.8486793
  69 BEND      5  1  7                  1.9295832     110.5569733
  70 BEND      5  1  6                  1.9198423     109.9988596
  71 BEND      6  1  7                  1.8957048     108.6158858
  72 BEND      8  4  9                  1.9178458     109.8844712
  73 BEND     10  5 11                  1.8883030     108.1917916
  74 BEND     12  2 17                  1.8522395     106.1255079
  75 BEND     12  2 17                  1.8522395     106.1255079
  76 BEND     12  2 17                  1.8522395     106.1255079
  77 BEND     12  2 17                  1.8522395     106.1255079
  78 BEND     13  3 16                  1.7207194      98.5899578
  79 BEND     14 12 15                  1.9455079     111.4693930
  80 BEND     18 17 19                  1.8787527     107.6446005
  81 BEND     18 17 20                  1.8721416     107.2658125
  82 BEND     19 17 20                  1.8850896     108.0076792
  83 TORSION   1  2 17 18              -0.1215735      -6.9656478
  84 TORSION   1  2 17 19              -2.1944031    -125.7300387
  85 TORSION   1  5  4  3              -0.7406059     -42.4335919
  86 TORSION   1  2 17 20               1.9679817     112.7570465
  87 TORSION   1  2  3 16               2.6519379     151.9448515
  88 TORSION   1  2  3  4              -0.1918386     -10.9915417
  89 TORSION   1  2  3 13              -1.9721318    -112.9948272
  90 TORSION   1  5  4  8               1.2642226      72.4346180
  91 TORSION   1  2 12 14              -0.0242014      -1.3866362
  92 TORSION   1  2 12 15              -2.4577951    -140.8212844
  93 TORSION   1  5  4  9              -2.8731160    -164.6174190
  94 TORSION   2  3  4  8              -1.4110847     -80.8491953
  95 TORSION   2  3  4  9               2.7136195     155.4789460
  96 TORSION   2  1  5 11              -1.3364768     -76.5744826
  97 TORSION   2  3  4  5               0.5842474      33.4749123
  98 TORSION   2  1  5  4               0.6397913      36.6573384
  99 TORSION   2  1  5 10               2.8450485     163.0092698
 100 TORSION   3  2 12 14              -1.9124005    -109.5724789
 101 TORSION   3  4  5 10              -2.9361991    -168.2318171
 102 TORSION   3  4  5 11               1.2434713      71.2456565
 103 TORSION   3  2 17 19               0.0843858       4.8349474
 104 TORSION   3  2 12 15               1.9371911     110.9928729
 105 TORSION   3  2 17 18               2.1572154     123.5993383
 106 TORSION   3  2 17 20              -2.0364147    -116.6779675
 107 TORSION   3  2  1  5              -0.2789831     -15.9845549
 108 TORSION   3  2  1  6              -2.3585979    -135.1377050
 109 TORSION   3  2  1  7               1.7807732     102.0307867
 110 TORSION   4  3  2 17              -2.5888393    -148.3295645
 111 TORSION   4  3  2 12               1.7625418     100.9862082
 112 TORSION   4  5  1  6               2.7701779     158.7194998
 113 TORSION   4  5  1  7              -1.4194250     -81.3270592
 114 TORSION   5  1  2 12              -2.0372046    -116.7232238
 115 TORSION   5  1  2 17               2.0845326     119.4349222
 116 TORSION   5  4  3 16              -2.2571279    -129.3239051
 117 TORSION   5  4  3 13               2.0926196     119.8982734
 118 TORSION   6  1  2 12               2.1663660     124.1236261
 119 TORSION   6  1  2 17               0.0049179       0.2817722
 120 TORSION   6  1  5 10              -1.3077502     -74.9285689
 121 TORSION   6  1  5 11               0.7939098      45.4876787
 122 TORSION   7  1  2 12               0.0225517       1.2921177
 123 TORSION   7  1  2 17              -2.1388964    -122.5497362
 124 TORSION   7  1  5 10               0.7858323      45.0248721
 125 TORSION   7  1  5 11               2.8874923     165.4411197
 126 TORSION   8  4  5 10              -0.9313706     -53.3636072
 127 TORSION   8  4  5 11              -3.0348856    -173.8861336
 128 TORSION   8  4  3 16               2.0307253     116.3519873
 129 TORSION   8  4  3 13               0.0972875       5.5741658
 130 TORSION   9  4  5 10               1.2144761      69.5843558
 131 TORSION   9  4  5 11              -0.8890388     -50.9381706
 132 TORSION   9  4  3 16              -0.1277559      -7.3198714
 133 TORSION   9  4  3 13              -2.0611936    -118.0976929
 134 TORSION  12  2 17 19               1.8973525     108.7102881
 135 TORSION  12  2  3 16              -1.6768669     -96.0773986
 136 TORSION  12  2 17 18              -2.3130032    -132.5253210
 137 TORSION  12  2 17 20              -0.2234480     -12.8026267
 138 TORSION  12  2  3 13              -0.0177513      -1.0170773
 139 TORSION  13  3  2 17               1.9140528     109.6671500
 140 TORSION  14 12  2 17               2.2791297     130.5845111
 141 TORSION  15 12  2 17              -0.1544640      -8.8501371
 142 TORSION  16  3  2 17               0.2549373      14.6068286

     ------------------------------------------
     THE POINT GROUP IS C1 , NAXIS= 0, ORDER= 1
     ------------------------------------------

     DIMENSIONS OF THE SYMMETRY SUBSPACES ARE
 A   =   48

 ..... DONE SETTING UP THE RUN .....
 STEP CPU TIME =     0.05 TOTAL CPU TIME =          0.0 (      0.0 MIN)
 TOTAL WALL CLOCK TIME=          0.1 SECONDS, CPU UTILIZATION IS    71.43%


          -----------------------------
          STATIONARY POINT LOCATION RUN
          -----------------------------


           ** GEOMETRY CONSTRAINTS ARE BEING APPLIED. **

          TRANSFORMING DISPLACEMENT FROM INTERNALS TO CARTESIANS
          THE ROOT MEAN SQUARE ERROR IN ITERATION   1 IS   0.00089740
          THE ROOT MEAN SQUARE ERROR IN ITERATION   2 IS   0.00000137
          THE ROOT MEAN SQUARE ERROR IN ITERATION   3 IS   0.00000000
 WARNING! THE RADIUS IN CARTESIANS IS    0.79837
 OBTAINING INITIAL HESSIAN, HESS=CALC    

     ---------------------------------
     HESSIAN MATRIX CONTROL PARAMETERS
     ---------------------------------
     METHOD=ANALYTIC   NVIB  =       2   VIBSIZ= 0.01000
     RDHESS=       F   PURIFY=       F   PRTIFC=       F
     VIBANL=       F   DECOMP=       F   PROJCT=       F
     SCLFAC= 1.00000   PRTSCN=       F   NPRT  =       0
     PULCOR=       F   NPUN  =       0   REDOVB=       T
     HSSTYP=GENERAL 
 Old integral subroutine is used

     ------------------------------
     CPHF RESPONSE SOLUTION OPTIONS
     ------------------------------
     POLAR  =       F     NWORD  =       0
     CPHF   =AO      

          ********************
          1 ELECTRON INTEGRALS
          ********************
 ...... END OF ONE-ELECTRON INTEGRALS ......
 STEP CPU TIME =     0.05 TOTAL CPU TIME =          0.1 (      0.0 MIN)
 TOTAL WALL CLOCK TIME=          0.1 SECONDS, CPU UTILIZATION IS    76.92%

          -------------
          GUESS OPTIONS
          -------------
          GUESS =HUCKEL            NORB  =       0          NORDER=       0
          MIX   =       F          PRTMO =       F          PUNMO =       F
          TOLZ  = 1.0E-08          TOLE  = 1.0E-05
          SYMDEN=       F          PURIFY=       F

 INITIAL GUESS ORBITALS GENERATED BY HUCKEL   ROUTINE.
 HUCKEL GUESS REQUIRES     39252 WORDS.

 SYMMETRIES FOR INITIAL GUESS ORBITALS FOLLOW.   BOTH SET(S).
    27 ORBITALS ARE OCCUPIED (    7 CORE ORBITALS).
     8=A        9=A       10=A       11=A       12=A       13=A       14=A   
    15=A       16=A       17=A       18=A       19=A       20=A       21=A   
    22=A       23=A       24=A       25=A       26=A       27=A       28=A   
    29=A       30=A       31=A       32=A       33=A       34=A       35=A   
    36=A       37=A   
 ...... END OF INITIAL ORBITAL SELECTION ......
 STEP CPU TIME =     0.01 TOTAL CPU TIME =          0.1 (      0.0 MIN)
 TOTAL WALL CLOCK TIME=          0.1 SECONDS, CPU UTILIZATION IS    78.57%

                    ----------------------
                    AO INTEGRAL TECHNOLOGY
                    ----------------------
     S,P,L SHELL ROTATED AXIS INTEGRALS, REPROGRAMMED BY
        KAZUYA ISHIMURA (IMS) AND JOSE SIERRA (SYNSTAR).
     S,P,D,L SHELL ROTATED AXIS INTEGRALS PROGRAMMED BY
        KAZUYA ISHIMURA (INSTITUTE FOR MOLECULAR SCIENCE).
     S,P,D,F,G SHELL TO TOTAL QUARTET ANGULAR MOMENTUM SUM 5,
        ERIC PROGRAM BY GRAHAM FLETCHER (ELORET AND NASA ADVANCED
        SUPERCOMPUTING DIVISION, AMES RESEARCH CENTER).
     S,P,D,F,G,L SHELL GENERAL RYS QUADRATURE PROGRAMMED BY
        MICHEL DUPUIS (PACIFIC NORTHWEST NATIONAL LABORATORY).

          --------------------
          2 ELECTRON INTEGRALS
          --------------------

 THE -PK- OPTION IS OFF, THE INTEGRALS ARE NOT IN SUPERMATRIX FORM.
 STORING   15000 INTEGRALS/RECORD ON DISK, USING 12 BYTES/INTEGRAL.
 TWO ELECTRON INTEGRAL EVALUATION REQUIRES   89734 WORDS OF MEMORY.
 SCHWARZ INEQUALITY OVERHEAD:      1167 INTEGRALS, T=        0.00
 II,JST,KST,LST =  1  1  1  1 NREC =         1 INTLOC =    1
 II,JST,KST,LST =  2  1  1  1 NREC =         1 INTLOC =    2
 II,JST,KST,LST =  3  1  1  1 NREC =         1 INTLOC =   34
 II,JST,KST,LST =  4  1  1  1 NREC =         1 INTLOC =  139
 II,JST,KST,LST =  5  1  1  1 NREC =         1 INTLOC = 1355
 II,JST,KST,LST =  6  1  1  1 NREC =         1 INTLOC = 1943
 II,JST,KST,LST =  7  1  1  1 NREC =         1 INTLOC = 6827
 II,JST,KST,LST =  8  1  1  1 NREC =         1 INTLOC = 8538
 II,JST,KST,LST =  9  1  1  1 NREC =         2 INTLOC = 5992
 II,JST,KST,LST = 10  1  1  1 NREC =         2 INTLOC = 9872
 II,JST,KST,LST = 11  1  1  1 NREC =         4 INTLOC = 5324
 II,JST,KST,LST = 12  1  1  1 NREC =         4 INTLOC =13924
 II,JST,KST,LST = 13  1  1  1 NREC =         5 INTLOC = 8595
 II,JST,KST,LST = 14  1  1  1 NREC =         6 INTLOC = 4385
 II,JST,KST,LST = 15  1  1  1 NREC =         7 INTLOC = 1363
 II,JST,KST,LST = 16  1  1  1 NREC =         7 INTLOC =14642
 II,JST,KST,LST = 17  1  1  1 NREC =         8 INTLOC =14341
 II,JST,KST,LST = 18  1  1  1 NREC =         9 INTLOC =12365
 II,JST,KST,LST = 19  1  1  1 NREC =        15 INTLOC = 2587
 II,JST,KST,LST = 20  1  1  1 NREC =        16 INTLOC =12357
 II,JST,KST,LST = 21  1  1  1 NREC =        18 INTLOC = 9107
 II,JST,KST,LST = 22  1  1  1 NREC =        20 INTLOC = 7219
 II,JST,KST,LST = 23  1  1  1 NREC =        22 INTLOC = 8591
 II,JST,KST,LST = 24  1  1  1 NREC =        24 INTLOC = 5357
 II,JST,KST,LST = 25  1  1  1 NREC =        34 INTLOC =14491
 II,JST,KST,LST = 26  1  1  1 NREC =        38 INTLOC = 1394
 II,JST,KST,LST = 27  1  1  1 NREC =        41 INTLOC = 6608
 SCHWARZ INEQUALITY TEST SKIPPED        8127 INTEGRAL BLOCKS.
 TOTAL NUMBER OF NONZERO TWO-ELECTRON INTEGRALS =              659164
         44 INTEGRAL RECORDS WERE STORED ON DISK FILE  8.
  ...... END OF TWO-ELECTRON INTEGRALS .....
 STEP CPU TIME =     0.20 TOTAL CPU TIME =          0.3 (      0.0 MIN)
 TOTAL WALL CLOCK TIME=          0.3 SECONDS, CPU UTILIZATION IS    91.18%

          --------------------------
                 RHF SCF CALCULATION
          --------------------------

     NUCLEAR ENERGY =       302.5228604619
     MAXIT =   30     NPUNCH=    2
     EXTRAP=T  DAMP=F  SHIFT=F  RSTRCT=F  DIIS=F  DEM=F  SOSCF=T
     DENSITY MATRIX CONV=  1.00E-05
     SOSCF WILL OPTIMIZE     567 ORBITAL ROTATIONS, SOGTOL=   0.250
     MEMORY REQUIRED FOR RHF ITERS=     49068 WORDS.

 ITER EX DEM     TOTAL ENERGY        E CHANGE  DENSITY CHANGE     ORB. GRAD
   1  0  0     -255.8300980803  -255.8300980803   0.339840584   0.000000000
          ---------------START SECOND ORDER SCF---------------
   2  1  0     -256.2022898242    -0.3721917439   0.101934521   0.033422479
   3  2  0     -256.2220225257    -0.0197327015   0.048497938   0.013784715
   4  3  0     -256.2252812558    -0.0032587301   0.012129479   0.003387975
   5  4  0     -256.2255450709    -0.0002638152   0.003563466   0.001240493
   6  5  0     -256.2255888785    -0.0000438076   0.001735182   0.000359558
   7  6  0     -256.2255948293    -0.0000059508   0.000262231   0.000058246
   8  7  0     -256.2255950489    -0.0000002196   0.000080174   0.000025762
   9  8  0     -256.2255950788    -0.0000000299   0.000047098   0.000008368
  10  9  0     -256.2255950834    -0.0000000047   0.000021213   0.000003428
  11 10  0     -256.2255950843    -0.0000000008   0.000003947   0.000001386
  12 11  0     -256.2255950843    -0.0000000001   0.000001251   0.000000474

          -----------------
          DENSITY CONVERGED
          -----------------
     TIME TO FORM FOCK OPERATORS=       0.1 SECONDS (       0.0 SEC/ITER)
     TIME TO SOLVE SCF EQUATIONS=       0.0 SECONDS (       0.0 SEC/ITER)

 FINAL RHF ENERGY IS     -256.2255950843 AFTER  12 ITERATIONS

          ------------
          EIGENVECTORS
          ------------

                      1          2          3          4          5
                  -11.1626   -11.0970   -11.0709   -11.0539   -11.0480
                     A          A          A          A          A   
    1  C  1  S   -0.000289  -0.001167  -0.007285   0.991962   0.001649
    2  C  1  S    0.000145  -0.000016  -0.005970   0.036807   0.000216
    3  C  1  X   -0.000079  -0.000058  -0.003946   0.000478  -0.000105
    4  C  1  Y   -0.000074  -0.000321   0.000209   0.000143  -0.000013
    5  C  1  Z    0.000012  -0.000073   0.001512  -0.000180  -0.000089
    6  C  2  S    0.000870  -0.000387  -0.000853  -0.005162  -0.007371
    7  C  2  S   -0.005936   0.000180   0.000121  -0.005706  -0.005636
    8  C  2  X   -0.003082   0.000011  -0.000072  -0.001721   0.003229
    9  C  2  Y   -0.001996  -0.000055   0.000035   0.003139   0.000721
   10  C  2  Z    0.001838  -0.000084   0.000127  -0.002131   0.002439
   11  C  3  S    0.992513   0.001901   0.000798   0.000361   0.000220
   12  C  3  S    0.033816  -0.006134  -0.000089   0.000236   0.000198
   13  C  3  X   -0.000099  -0.003934   0.000019  -0.000062  -0.000065
   14  C  3  Y   -0.000914   0.001301   0.000379  -0.000014  -0.000066
   15  C  3  Z    0.000350  -0.001758  -0.000040  -0.000064  -0.000016
   16  C  4  S   -0.000973   0.991911   0.004882   0.001312   0.000088
   17  C  4  S   -0.005642   0.037525  -0.005692   0.000039  -0.000047
   18  C  4  X    0.003451  -0.001140   0.000738   0.000268   0.000055
   19  C  4  Y   -0.001350  -0.000194   0.004221   0.000007   0.000001
   20  C  4  Z    0.001742  -0.000043  -0.000689  -0.000186  -0.000025
   21  C  5  S   -0.000640  -0.003939   0.991927   0.008250  -0.000163
   22  C  5  S   -0.000034  -0.005987   0.037148  -0.005471   0.000001
   23  C  5  X    0.000402  -0.001054  -0.000397   0.003956  -0.000011
   24  C  5  Y   -0.000233  -0.004108   0.000521  -0.000005   0.000002
   25  C  5  Z    0.000276   0.000665  -0.000526  -0.001638  -0.000024
   26  H  6  S   -0.000051  -0.000144   0.000151  -0.006712  -0.000025
   27  H  7  S    0.000007   0.000073   0.000076  -0.006735  -0.000015
   28  H  8  S   -0.000080  -0.006748  -0.000024  -0.000019  -0.000005
   29  H  9  S    0.000065  -0.006671   0.000087  -0.000159  -0.000014
   30  H 10  S   -0.000197   0.000151  -0.006646   0.000063   0.000008
   31  H 11  S   -0.000188   0.000034  -0.006793  -0.000028  -0.000001
   32  B 12  S    0.000021  -0.000004  -0.000000   0.000008   0.000017
   33  B 12  S    0.000279   0.000015  -0.000008   0.000030  -0.000002
   34  B 12  X   -0.000125   0.000021   0.000036  -0.000021   0.000102
   35  B 12  Y    0.000313  -0.000017   0.000015  -0.000013  -0.000047
   36  B 12  Z    0.000222  -0.000001   0.000015  -0.000073   0.000077
   37  H 13  S   -0.001864   0.000070  -0.000028   0.000006   0.000009
   38  H 14  S   -0.000071   0.000016  -0.000005   0.000121  -0.000042
   39  H 15  S   -0.000089   0.000001   0.000012  -0.000025   0.000125
   40  H 16  S   -0.006498   0.000073  -0.000041  -0.000082  -0.000007
   41  C 17  S   -0.000182  -0.000077   0.000159  -0.001688   0.992028
   42  C 17  S    0.000179  -0.000061   0.000014   0.000115   0.036804
   43  C 17  X   -0.000020  -0.000038   0.000048   0.000049  -0.000221
   44  C 17  Y   -0.000000  -0.000034  -0.000016  -0.000097  -0.000237
   45  C 17  Z    0.000019  -0.000020  -0.000023   0.000064  -0.000349
   46  H 18  S   -0.000027  -0.000002   0.000010  -0.000078  -0.006761
   47  H 19  S   -0.000203  -0.000016   0.000000   0.000000  -0.006759
   48  H 20  S   -0.000016   0.000006   0.000009   0.000007  -0.006680

                      6          7          8          9         10
                  -11.0245    -7.3130    -1.1310    -0.9775    -0.9486
                     A          A          A          A          A   
    1  C  1  S    0.006168   0.000024  -0.086244  -0.009042  -0.148601
    2  C  1  S   -0.005329   0.000183   0.222061   0.029030   0.425072
    3  C  1  X    0.001751   0.000050   0.029625  -0.075474   0.038142
    4  C  1  Y   -0.003000  -0.000134   0.034252   0.035838  -0.015431
    5  C  1  Z    0.002272   0.000079  -0.037618  -0.016178  -0.015185
    6  C  2  S    0.992087   0.000591  -0.097713  -0.128382  -0.018254
    7  C  2  S    0.035220  -0.003716   0.248424   0.359356   0.052794
    8  C  2  X    0.002159   0.000987   0.067201  -0.018811  -0.026329
    9  C  2  Y    0.000062  -0.002297   0.000522   0.011485  -0.097361
   10  C  2  Z   -0.001451  -0.002115  -0.014442  -0.059959   0.054624
   11  C  3  S   -0.000044   0.000076  -0.124996  -0.052232   0.127252
   12  C  3  S   -0.006771  -0.000091   0.336949   0.157347  -0.381116
   13  C  3  X    0.003546   0.000169   0.014868  -0.134557  -0.065264
   14  C  3  Y    0.002491  -0.000066  -0.064331  -0.019418  -0.013327
   15  C  3  Z   -0.001712  -0.000184   0.046544  -0.010046   0.011708
   16  C  4  S    0.000454  -0.000004  -0.122075   0.098925   0.089191
   17  C  4  S    0.000202   0.000066   0.320374  -0.283174  -0.260733
   18  C  4  X    0.000022   0.000048  -0.070834  -0.014576   0.038842
   19  C  4  Y   -0.000001   0.000054  -0.028796   0.054587  -0.090470
   20  C  4  Z   -0.000123   0.000032  -0.010653  -0.014109   0.050849
   21  C  5  S    0.000977  -0.000003  -0.103304   0.100068  -0.096013
   22  C  5  S    0.000122   0.000005   0.266315  -0.282956   0.277766
   23  C  5  X    0.000121   0.000024  -0.033568  -0.026039  -0.080025
   24  C  5  Y   -0.000162   0.000034   0.057933  -0.042212  -0.055445
   25  C  5  Z    0.000164   0.000022  -0.007545   0.010368   0.038097
   26  H  6  S    0.000013  -0.000045   0.036103   0.010560   0.117529
   27  H  7  S   -0.000011  -0.000651   0.038510   0.003040   0.105509
   28  H  8  S    0.000012  -0.000190   0.059441  -0.069646  -0.064967
   29  H  9  S   -0.000091  -0.000016   0.054666  -0.075696  -0.079023
   30  H 10  S   -0.000139   0.000004   0.042676  -0.072678   0.076554
   31  H 11  S   -0.000093  -0.000018   0.053201  -0.068158   0.071776
   32  B 12  S    0.000450   0.990472  -0.009971  -0.017619   0.002680
   33  B 12  S   -0.003174   0.038640   0.018197   0.035692  -0.005107
   34  B 12  X   -0.000846   0.000401   0.004374   0.003361  -0.005729
   35  B 12  Y    0.002174   0.000601  -0.006458  -0.012970  -0.004038
   36  B 12  Z    0.001860  -0.000051  -0.006761  -0.013013   0.005173
   37  H 13  S    0.000407  -0.006094   0.011143   0.014666  -0.017418
   38  H 14  S    0.000162  -0.006650   0.003637   0.006861   0.001476
   39  H 15  S    0.000145  -0.006632   0.002631   0.009584  -0.000558
   40  H 16  S    0.000091  -0.000002   0.060437   0.050808  -0.122457
   41  C 17  S    0.008373   0.000040  -0.030941  -0.132753  -0.023770
   42  C 17  S   -0.005034   0.000156   0.082402   0.373698   0.068184
   43  C 17  X   -0.003382  -0.000125   0.024481   0.043424   0.001885
   44  C 17  Y   -0.000594  -0.000184   0.003528   0.007619  -0.012083
   45  C 17  Z   -0.002176  -0.000136   0.013092   0.019693   0.010067
   46  H 18  S   -0.000055  -0.000084   0.014774   0.090088   0.026143
   47  H 19  S    0.000001  -0.000038   0.016311   0.096512   0.010250
   48  H 20  S   -0.000017  -0.000673   0.012510   0.084493   0.016416

                     11         12         13         14         15
                   -0.8700    -0.7733    -0.7204    -0.6479    -0.6321
                     A          A          A          A          A   
    1  C  1  S    0.074297   0.083298   0.076784   0.004677  -0.000505
    2  C  1  S   -0.220615  -0.263044  -0.245453  -0.013494   0.004081
    3  C  1  X    0.029820   0.109721  -0.002075   0.022455  -0.203284
    4  C  1  Y   -0.030373  -0.027985   0.172836   0.004498  -0.064668
    5  C  1  Z   -0.002744  -0.069567  -0.099279   0.183492  -0.089559
    6  C  2  S    0.045564   0.005199  -0.107805  -0.018923  -0.076659
    7  C  2  S   -0.133785  -0.020251   0.343738   0.070665   0.268934
    8  C  2  X   -0.152360   0.027487   0.056367  -0.093490  -0.123578
    9  C  2  Y   -0.020298   0.096214   0.046753   0.161200  -0.080863
   10  C  2  Z   -0.056701  -0.105591   0.004887   0.039678  -0.029020
   11  C  3  S    0.077003  -0.062347   0.065248   0.007265   0.036983
   12  C  3  S   -0.239596   0.205506  -0.220517  -0.025702  -0.128716
   13  C  3  X    0.078637  -0.139910  -0.154417  -0.170714  -0.085829
   14  C  3  Y    0.015735   0.023246  -0.210732   0.177675   0.039092
   15  C  3  Z   -0.008243  -0.121213   0.272133  -0.051786  -0.138113
   16  C  4  S   -0.076600   0.096548  -0.012756   0.000672  -0.021264
   17  C  4  S    0.233624  -0.308216   0.039865   0.002302   0.073494
   18  C  4  X    0.076092  -0.058377  -0.011086   0.167603   0.323498
   19  C  4  Y   -0.050268  -0.141251  -0.106720   0.060013  -0.001206
   20  C  4  Z    0.017508  -0.050758   0.112320   0.202021  -0.203638
   21  C  5  S   -0.058185  -0.120566  -0.014490  -0.018191   0.011580
   22  C  5  S    0.174683   0.383104   0.046155   0.060968  -0.040031
   23  C  5  X    0.088416   0.059256   0.058887   0.173598   0.114118
   24  C  5  Y    0.029462  -0.119006   0.094435  -0.079599  -0.097778
   25  C  5  Z   -0.028235  -0.066179  -0.042861   0.220125  -0.169728
   26  H  6  S   -0.056977  -0.099170  -0.179882  -0.034975   0.119504
   27  H  7  S   -0.069092  -0.129762  -0.122666   0.130925  -0.074487
   28  H  8  S    0.070425  -0.173473   0.046324   0.177534  -0.069283
   29  H  9  S    0.094261  -0.130386  -0.045964   0.019850   0.321698
   30  H 10  S    0.067079   0.166817  -0.002953   0.226654   0.001972
   31  H 11  S    0.056833   0.198309   0.008676  -0.104491   0.139876
   32  B 12  S    0.010869   0.003450  -0.031510  -0.101178  -0.010498
   33  B 12  S   -0.022953  -0.008599   0.073434   0.241609   0.027540
   34  B 12  X   -0.011908  -0.000190   0.005265   0.011057  -0.017629
   35  B 12  Y    0.006197   0.009042  -0.020342  -0.000973  -0.015311
   36  B 12  Z    0.004788  -0.009044  -0.012103  -0.013373  -0.006296
   37  H 13  S   -0.020215   0.006829   0.017594   0.131177  -0.017729
   38  H 14  S   -0.008056  -0.011161   0.025509   0.110848   0.006559
   39  H 15  S   -0.000393  -0.000705   0.023984   0.109516   0.015590
   40  H 16  S   -0.075190   0.153714  -0.310558   0.103394   0.042217
   41  C 17  S   -0.164031   0.009623   0.028917   0.010062   0.029932
   42  C 17  S    0.482826  -0.030496  -0.089014  -0.031838  -0.095940
   43  C 17  X   -0.044421   0.022560   0.076440   0.010115   0.167665
   44  C 17  Y   -0.013508   0.029889   0.030065   0.098012  -0.002475
   45  C 17  Z   -0.034125  -0.020897   0.070468   0.046332   0.143213
   46  H 18  S    0.153517  -0.033002  -0.066147  -0.088193  -0.057111
   47  H 19  S    0.153487   0.015273  -0.067522  -0.015194  -0.118404
[...]
 19   H            X -0.00864368  0.10230859 -0.00056769 -0.00016351 -0.00038080
                   Y -0.00709897  0.06355953  0.00041158  0.00207336  0.00255833
                   Z -0.01047680  0.03693158 -0.00117432 -0.00099934 -0.00142847
 20   H            X  0.00095765 -0.05962478  0.00018742 -0.00077241 -0.00076631
                   Y -0.00128032 -0.08987682 -0.00006616 -0.00020981 -0.00016552
                   Z  0.00006946 -0.05571766 -0.00005819  0.00198670  0.00072152

 TRANS. SAYVETZ    X -0.00000017  0.00000001  0.00000033 -0.00000018 -0.00000007
                   Y  0.00000002  0.00000071  0.00000001  0.00000011  0.00000003
                   Z -0.00000010  0.00000015  0.00000041 -0.00000002  0.00000005
               TOTAL  0.00000020  0.00000073  0.00000052  0.00000021  0.00000009

   ROT. SAYVETZ    X  0.00012100  0.01018900 -0.01328149  0.01478124  0.00111084
                   Y  0.00086813 -0.01237817  0.01642291 -0.01848365 -0.00189801
                   Z -0.00071517  0.01098247 -0.01402975  0.01544007  0.00167058
               TOTAL  0.00113126  0.01943320  0.02535633  0.02825821  0.00276174

                           51          52          53          54          55
       FREQUENCY:      3569.84     3607.46     3610.22     3633.79     3727.63  
        SYMMETRY:         A           A           A           A           A   
    REDUCED MASS:      1.03944     1.06720     1.06723     1.06843     1.10997
    IR INTENSITY:      0.00958     0.02475     0.02114     0.01238     0.00136

  1   C            X  0.00032440 -0.02523588 -0.00191061  0.00437229  0.03223284
                   Y  0.00053646 -0.06566942 -0.00590711  0.00721663 -0.01285950
                   Z  0.00023698 -0.00486948 -0.00026811  0.00314141 -0.08373879
  2   C            X  0.00254055 -0.00054585 -0.00039825  0.00055148  0.00004179
                   Y  0.00001458  0.00142640  0.00029873 -0.00007334 -0.00063238
                   Z  0.00089022 -0.00093523 -0.00018919  0.00026070  0.00059683
  3   C            X  0.00031134  0.00018798 -0.00164724  0.00002847  0.00005616
                   Y  0.00026409  0.00026541 -0.00186436  0.00053688  0.00016228
                   Z -0.00002874  0.00001765  0.00118974 -0.00042948 -0.00032769
  4   C            X  0.00015306 -0.00540253  0.05888868 -0.00563789  0.00108910
                   Y  0.00005751 -0.00182873  0.01663613 -0.00250951  0.00575531
                   Z -0.00009646  0.00345578 -0.03488117  0.00680391  0.00737195
  5   C            X  0.00006183 -0.00219980 -0.00656843 -0.04468268 -0.00391009
                   Y -0.00007810  0.00515218  0.00263618  0.02959673  0.00474194
                   Z  0.00005509 -0.00297381 -0.00242224 -0.04606225  0.00475526
  6   H            X  0.00017749 -0.00029254  0.00042920  0.00272523  0.00242963
                   Y -0.00497808  0.57185645  0.05021254 -0.06587489  0.40225766
                   Z -0.00448340  0.52341595  0.04576221 -0.05940388  0.36283839
  7   H            X -0.00158712  0.27597247  0.02216163 -0.02048411 -0.37799583
                   Y -0.00079344  0.16617590  0.01375826 -0.01072191 -0.23709842
                   Z  0.00261399 -0.45876452 -0.03805804  0.03361667  0.61997503
  8   H            X -0.00096420  0.03005462 -0.29889866  0.02056916 -0.04275378
                   Y -0.00123249  0.03943861 -0.38583310  0.02890427 -0.05484520
                   Z -0.00094163  0.02595708 -0.26011891  0.01951169 -0.03539275
  9   H            X -0.00073561  0.03390645 -0.35796649  0.04255354  0.02804148
                   Y  0.00050815 -0.02025337  0.20871359 -0.02708655 -0.01583155
                   Z  0.00158558 -0.06250683  0.65918273 -0.07599328 -0.05137129
 10   H            X -0.00002910  0.00626009  0.00279229  0.03918760  0.00079553
                   Y -0.00027276  0.01510481  0.01362885  0.17699900 -0.01011886
                   Z -0.00092076  0.04824976  0.06085070  0.63586538 -0.03841830
 11   H            X -0.00089214  0.04798907  0.06087178  0.45188666  0.03883188
                   Y  0.00106528 -0.05482167 -0.06571718 -0.50278754 -0.04532383
                   Z  0.00027918 -0.01258290 -0.01602981 -0.12997146 -0.01066355
 12   B            X -0.00019759 -0.00013558  0.00013381  0.00010517  0.00004084
                   Y  0.00004912  0.00010029  0.00044917 -0.00000052  0.00022995
                   Z  0.00012950  0.00013964  0.00004266 -0.00016910 -0.00032328
 13   H            X  0.00153135  0.00132245 -0.00476700  0.00000294 -0.00103442
                   Y  0.00096401  0.00068236 -0.00167423 -0.00020376 -0.00065386
                   Z -0.00043529 -0.00036018  0.00090778 -0.00004851  0.00048677
 14   H            X -0.00005023  0.00014032  0.00022753  0.00097848 -0.00009257
                   Y  0.00017220  0.00145348 -0.00106166 -0.00180767 -0.00227370
                   Z -0.00044361 -0.00080893  0.00073523  0.00171912  0.00235710
 15   H            X  0.00183987  0.00061149 -0.00008448 -0.00013903  0.00050461
                   Y -0.00018346 -0.00053817 -0.00011619  0.00012007 -0.00033125
                   Z  0.00116946  0.00022287 -0.00003841  0.00004116  0.00054091
 16   H            X  0.00016726  0.00034328 -0.00280601  0.00236004  0.00065694
                   Y -0.00305801  0.00191835  0.02353349 -0.01096229 -0.00501569
                   Z  0.00241479 -0.00217580 -0.01821241  0.00877947  0.00245656
 17   C            X -0.04526346 -0.00041669  0.00009314 -0.00007133 -0.00109452
                   Y -0.01193691  0.00016919 -0.00003141 -0.00013613  0.00119669
                   Z -0.02383521 -0.00003870  0.00010123 -0.00004368  0.00164982
 18   H            X  0.01084794  0.00009920 -0.00025610 -0.00006133 -0.00010179
                   Y  0.46577122  0.00222280 -0.00113265  0.00088946 -0.01186518
                   Z  0.43626650  0.00205063 -0.00108280  0.00078511 -0.01108118
 19   H            X  0.13143064  0.00201279 -0.00004043  0.00001059  0.00162398
                   Y -0.44036379 -0.00515338  0.00076042  0.00005594 -0.00553011
                   Z  0.22017968  0.00285758 -0.00028004 -0.00004254  0.00298050
 20   H            X  0.35898802  0.00328286 -0.00009726  0.00030344  0.01031227
                   Y  0.11453496  0.00100184 -0.00010055  0.00013327  0.00359386
                   Z -0.38748444 -0.00345266  0.00015430 -0.00044356 -0.01135864

 TRANS. SAYVETZ    X -0.00000041  0.00000001  0.00000056 -0.00000019  0.00000000
                   Y  0.00000000 -0.00000073 -0.00000016  0.00000023  0.00000013
                   Z -0.00000044 -0.00000018 -0.00000047  0.00000029 -0.00000003
               TOTAL  0.00000060  0.00000075  0.00000074  0.00000042  0.00000014

   ROT. SAYVETZ    X  0.00001324  0.00002588 -0.00001855 -0.00003308 -0.00004617
                   Y -0.00004957 -0.00002846  0.00010006 -0.00000655  0.00003188
                   Z  0.00003614  0.00002080 -0.00008223  0.00000081 -0.00002441
               TOTAL  0.00006276  0.00004373  0.00013083  0.00003373  0.00006119

                           56          57          58          59          60
       FREQUENCY:      3732.34     3739.49     3740.59     3751.83     3768.37  
        SYMMETRY:         A           A           A           A           A   
    REDUCED MASS:      1.10996     1.10664     1.10161     1.11146     1.11002
    IR INTENSITY:      0.01017     0.03354     0.37332     0.00732     0.00778

  1   C            X  0.00323225  0.00111583  0.00114607  0.00206622 -0.00034426
                   Y -0.00062772 -0.00029996  0.00060257 -0.00196733 -0.00009071
                   Z -0.00782488 -0.00279711 -0.00156331 -0.00682368 -0.00012775
  2   C            X -0.00061282  0.00078027  0.00448488 -0.00039677 -0.00055836
                   Y -0.00107843  0.00119244  0.00403034 -0.00017425 -0.00003290
                   Z  0.00036708 -0.00041059 -0.00135417 -0.00005726 -0.00042518
  3   C            X -0.00091790  0.00281993  0.00860088 -0.00026306  0.00021949
                   Y  0.01355394 -0.02065882 -0.06316412  0.00234137  0.00066451
                   Z -0.01053543  0.01621786  0.05009640 -0.00187910 -0.00027198
  4   C            X -0.01504600 -0.00257524 -0.00693062 -0.00066322 -0.00000488
                   Y -0.05662245 -0.00445687 -0.01007002 -0.00543591  0.00003365
                   Z -0.06654014 -0.00556877 -0.01269903 -0.00742358 -0.00000184
  5   C            X -0.00464926 -0.00067191 -0.00064182  0.03219639  0.00003742
                   Y  0.00790743  0.00087416  0.00033446 -0.05496538  0.00000853
                   Z  0.00735539  0.00030753 -0.00160881 -0.06538718  0.00000057
  6   H            X  0.00000434 -0.00003966 -0.00024937  0.00396104 -0.00005569
                   Y  0.03380777  0.01365598  0.00268263  0.04588966  0.00098848
                   Z  0.03038975  0.01209707  0.00244562  0.04041114  0.00091918
  7   H            X -0.03521663 -0.01261779 -0.00910252 -0.02945475  0.00052924
                   Y -0.02260895 -0.00806140 -0.00535448 -0.01738545  0.00044246
                   Z  0.05947807  0.02056899  0.01364492  0.04658148 -0.00104637
  8   H            X  0.41116648  0.03683591  0.08857108  0.03922443  0.00013393
                   Y  0.52160090  0.04622009  0.11005291  0.05153575  0.00008229
                   Z  0.34338813  0.03067713  0.07329344  0.03307020  0.00003833
  9   H            X -0.24480548 -0.01597985 -0.03457707 -0.03426538  0.00009112
                   Y  0.13862795  0.00924653  0.01991329  0.01536230 -0.00004971
                   Z  0.44450961  0.03067557  0.06645536  0.06209773 -0.00009500
 10   H            X -0.00392813 -0.00000159  0.00119003  0.04535993  0.00007055
                   Y -0.02071326 -0.00097971  0.00376148  0.17700525 -0.00001906
                   Z -0.06384373 -0.00234522  0.01685421  0.65416190 -0.00014198
 11   H            X  0.06018740  0.00604343  0.00118852 -0.42258487 -0.00048364
                   Y -0.06497445 -0.00664450 -0.00086268  0.46827555  0.00043684
                   Z -0.01647561 -0.00179861 -0.00069517  0.11592333  0.00009435
 12   B            X -0.00038275  0.00035478  0.00006535 -0.00007078  0.00020641
                   Y -0.00024865 -0.00000370  0.00032094  0.00014699 -0.00002612
                   Z  0.00015258 -0.00025099 -0.00095035 -0.00017118  0.00006238
 13   H            X  0.00274283 -0.00032183  0.00190036 -0.00011906 -0.00018797
                   Y  0.00142042  0.00109777  0.00332577 -0.00023525  0.00015702
                   Z  0.00051370  0.00042561 -0.00004957  0.00023878  0.00008475
 14   H            X -0.00027136  0.00028304  0.00176076  0.00108473 -0.00013884
                   Y  0.00094261 -0.00048669 -0.00275475 -0.00174046  0.00027328
                   Z  0.00017620 -0.00094508 -0.00177635  0.00152719 -0.00048123
 15   H            X  0.00087238 -0.00204032  0.00110865  0.00093956 -0.00205172
                   Y -0.00004977  0.00065062 -0.00010255 -0.00044423  0.00071694
                   Z  0.00078872 -0.00101993 -0.00024002  0.00063729 -0.00154808
 16   H            X  0.02674657 -0.04064442 -0.12419094  0.00392422  0.00120948
                   Y -0.14647585  0.22304508  0.67976827 -0.02334344 -0.00511838
                   Z  0.11915483 -0.17951015 -0.54931504  0.01861951  0.00393830
 17   C            X -0.00069949  0.03611188 -0.01264402  0.00033315 -0.01159272
                   Y  0.00113443 -0.04612120  0.01466109 -0.00030475 -0.07626096
                   Z  0.00128496 -0.06264038  0.02097880 -0.00054685  0.04923457
 18   H            X -0.00039398  0.01167580 -0.00382141  0.00018047  0.00124925
                   Y -0.01102224  0.48146592 -0.15727664  0.00374734  0.12742541
                   Z -0.01037552  0.44652874 -0.14551131  0.00348441  0.12387200
 19   H            X  0.00144167 -0.05718084  0.01809611 -0.00040671 -0.19814369
                   Y -0.00519885  0.19546192 -0.06171270  0.00125444  0.66782066
                   Z  0.00266984 -0.10284373  0.03271280 -0.00070650 -0.33502917
 20   H            X  0.00821195 -0.37735490  0.12867005 -0.00324281  0.34130224
                   Y  0.00282429 -0.12746068  0.04332717 -0.00108963  0.10821266
                   Z -0.00839568  0.40381479 -0.13861850  0.00358428 -0.36767700

 TRANS. SAYVETZ    X -0.00000010  0.00000010  0.00000027  0.00000004  0.00000002
                   Y  0.00000001 -0.00000005  0.00000001 -0.00000001 -0.00000010
                   Z -0.00000001  0.00000015  0.00000019  0.00000002  0.00000004
               TOTAL  0.00000011  0.00000019  0.00000033  0.00000004  0.00000011

   ROT. SAYVETZ    X -0.00050060  0.00082548  0.00255920 -0.00010417 -0.00000675
                   Y -0.00010624  0.00008256  0.00015972 -0.00000184  0.00001161
                   Z  0.00006693 -0.00004790 -0.00008879  0.00000251 -0.00000924
               TOTAL  0.00051610  0.00083098  0.00256571  0.00010422  0.00001630

 REFERENCE ON SAYVETZ CONDITIONS - A. SAYVETZ, J.CHEM.PHYS., 7, 383-389(1939).

 NOTE - THE MODES J,K ARE ORTHONORMALIZED ACCORDING TO
 SUM ON I   M(I) * (X(I,J)*X(I,K) + Y(I,J)*Y(I,K) + Z(I,J)*Z(I,K)) = DELTA(J,K)

  MODE FREQ(CM**-1)  SYMMETRY  RED. MASS  IR INTENS.
     1     117.907    A        1.450355    0.040711
     2      49.305    A        2.952106    0.107774
     3       0.017    A        4.805075    0.000000
     4       0.002    A        4.805523    0.000000
     5       0.004    A        4.805508    0.000000
     6       2.823    A        3.149202    0.004782
     7      74.030    A        1.768313    0.182099
     8     197.893    A        1.712297    0.249829
     9     220.146    A        1.392126    0.020000
    10     232.469    A        1.678194    0.355831
    11     300.399    A        3.364394    0.659464
    12     351.948    A        2.279261    0.051306
    13     365.560    A        2.527685    0.046957
    14     421.434    A        2.540152    0.070977
    15     546.520    A        3.246920    0.472358
    16     655.784    A        3.595275    0.025980
    17     761.100    A        2.130846    0.034277
    18     932.721    A        1.743197    0.261348
    19     963.383    A        1.158639    1.073659
    20    1000.642    A        2.008926    0.041175
    21    1036.593    A        1.493333    0.188791
    22    1060.475    A        1.453129    0.083110
    23    1085.934    A        1.973234    0.019520
    24    1117.977    A        1.769178    0.020536
    25    1151.213    A        1.201685    0.144376
    26    1208.361    A        1.313489    0.189627
    27    1242.334    A        1.604696    0.018462
    28    1252.830    A        1.250170    0.063882
    29    1301.817    A        1.619787    0.021399
    30    1371.779    A        1.292709    0.152391
    31    1385.618    A        1.837573    0.043925
    32    1439.946    A        1.147062    5.053514
    33    1468.366    A        1.219251    0.314669
    34    1486.311    A        1.278523    0.013838
    35    1500.919    A        1.411412    0.096032
    36    1533.222    A        1.101462    0.140800
    37    1543.000    A        1.080469    0.572616
    38    1614.702    A        1.848344    0.111153
    39    1628.104    A        1.691158    0.014221
    40    1640.971    A        1.928284    0.000356
    41    1720.595    A        1.311020    0.026080
    42    1801.687    A        1.064202    0.062292
    43    1803.924    A        1.092592    0.034357
    44    1809.090    A        1.098088    0.040601
    45    1811.442    A        1.087931    0.047275
    46    1829.395    A        1.126234    0.004928
    47    1918.664    A        5.203508    0.100091
    48    3101.456    A        1.021313    0.046715
    49    3273.956    A        1.117134    0.346683
    50    3315.211    A        1.130721    0.684151
    51    3569.838    A        1.039444    0.009578
    52    3607.463    A        1.067198    0.024747
    53    3610.215    A        1.067232    0.021138
    54    3633.791    A        1.068433    0.012381
    55    3727.634    A        1.109971    0.001360
    56    3732.344    A        1.109962    0.010170
    57    3739.488    A        1.106638    0.033537
    58    3740.586    A        1.101614    0.373324
    59    3751.829    A        1.111464    0.007323
    60    3768.372    A        1.110018    0.007776

     -------------------------------
     THERMOCHEMISTRY AT T=  298.15 K
     -------------------------------

 USING IDEAL GAS, RIGID ROTOR, HARMONIC NORMAL MODE APPROXIMATIONS.
 P=  1.01325E+05 PASCAL.
 ALL FREQUENCIES ARE SCALED BY   1.00000
 THE MOMENTS OF INERTIA ARE (IN AMU*BOHR**2)
            467.74021           756.38775           912.01395
 THE ROTATIONAL SYMMETRY NUMBER IS  1.0
 THE ROTATIONAL CONSTANTS ARE (IN GHZ)
      3.85489     2.38381     1.97704
   1 IMAGINARY FREQUENCY VIBRATION(S) IS(ARE) EXCLUDED
     FROM THE FOLLOWING THERMOCHEMICAL ANALYSIS.
      8 -     60 VIBRATIONAL MODES ARE USED IN THERMOCHEMISTRY.
 THE HARMONIC ZERO POINT ENERGY IS (SCALED BY   1.000)
        0.212524 HARTREE/MOLECULE    46643.727450 CM**-1/MOLECULE 
      133.361243 KCAL/MOL              557.983440 KJ/MOL

               Q               LN Q
 ELEC.     1.00000E+00       0.000000
 TRANS.    3.70351E+07      17.427377
 ROT.      2.03337E+05      12.222621
 VIB.      1.01670E+01       2.319151
 TOT.      7.65640E+13      31.969149

              E         H         G         CV        CP        S
           KJ/MOL    KJ/MOL    KJ/MOL   J/MOL-K   J/MOL-K   J/MOL-K
 ELEC.      0.000     0.000     0.000     0.000     0.000     0.000
 TRANS.     3.718     6.197   -43.201    12.472    20.786   165.684
 ROT.       3.718     3.718   -30.299    12.472    12.472   114.095
 VIB.     567.985   567.985   552.234    78.825    78.825    52.827
 TOTAL    575.421   577.900   478.734   103.768   112.083   332.607
 VIB. THERMAL CORRECTION E(T)-E(0) = H(T)-H(0) =     10001.233 J/MOL

              E         H         G         CV        CP        S
         KCAL/MOL  KCAL/MOL  KCAL/MOL CAL/MOL-K CAL/MOL-K CAL/MOL-K
 ELEC.      0.000     0.000     0.000     0.000     0.000     0.000
 TRANS.     0.889     1.481   -10.325     2.981     4.968    39.600
 ROT.       0.889     0.889    -7.242     2.981     2.981    27.269
 VIB.     135.752   135.752   131.987    18.840    18.840    12.626
 TOTAL    137.529   138.122   114.420    24.801    26.788    79.495
 VIB. THERMAL CORRECTION E(T)-E(0) = H(T)-H(0) =      2390.352 CAL/MOL

     *******************************************************
     * THIS IS NOT A STATIONARY POINT ON THE MOLECULAR PES *
     *     THE VIBRATIONAL ANALYSIS IS NOT VALID !!!       *
     *******************************************************
 ......END OF NORMAL COORDINATE ANALYSIS......
 STEP CPU TIME =     0.01 TOTAL CPU TIME =        140.1 (      2.3 MIN)
 TOTAL WALL CLOCK TIME=        140.8 SECONDS, CPU UTILIZATION IS    99.53%
               580000  WORDS OF DYNAMIC MEMORY USED
 EXECUTION OF GAMESS TERMINATED NORMALLY Sun Nov 14 02:10:37 2021
 DDI: 263640 bytes (0.3 MB / 0 MWords) used by master data server.

 ----------------------------------------
 CPU timing information for all processes
 ========================================
 0: 137.367 + 2.756 = 140.124
 ----------------------------------------
 ddikick.x: exited gracefully.
----- accounting info -----
Files used on the master node chemcompute-node-0.novalocal were:
-rw-r--r--. 1 chemcomp chemcomp     1359 Nov 14 02:08 /scratch/306321/342230.F05
-rw-rw-r--. 1 chemcomp chemcomp  8100720 Nov 14 02:10 /scratch/306321/342230.F08
-rw-rw-r--. 1 chemcomp chemcomp 85196800 Nov 14 02:10 /scratch/306321/342230.F10
-rw-rw-r--. 1 chemcomp chemcomp   564960 Nov 14 02:10 /scratch/306321/342230.F18
Sun Nov 14 02:10:40 UTC 2021
0.131u 0.107s 2:24.34 0.1%	0+0k 8+216io 0pf+0w
Finishing Up...
Looking for IR data...
Looking for Raman data...
vibramans not found
Looking for thermodynamics data...
Looking for UV-Vis data...
306321
