----- GAMESS execution script 'rungms' -----
This job is running on host chemcompute-node-0.novalocal
under operating system Linux at Sun Nov 14 02:19:45 UTC 2021
SLURM has assigned the following compute nodes to this run:
chemcompute-node-0
Available scratch disk space (Kbyte units) at beginning of the job is
Filesystem     1K-blocks     Used Available Use% Mounted on
/dev/sda1       62903276 19158072  43745204  31% /
GAMESS temporary binary files will be written to /scratch/306326
GAMESS supplementary output files will be written to /data/slurm/342235
Copying input file 342235.inp to your run's scratch directory...
The generated host list is
chemcompute-node-0.novalocal

 Distributed Data Interface kickoff program.
 Initiating 1 compute processes on 1 nodes to run the following command:
 /data/gamess-2019R1-ddi/gamess.00.x 342235 

          ******************************************************
          *         GAMESS VERSION = 30 JUN 2019 (R1)          *
          *             FROM IOWA STATE UNIVERSITY             *
          * M.W.SCHMIDT, K.K.BALDRIDGE, J.A.BOATZ, S.T.ELBERT, *
          *   M.S.GORDON, J.H.JENSEN, S.KOSEKI, N.MATSUNAGA,   *
          *          K.A.NGUYEN, S.J.SU, T.L.WINDUS,           *
          *       TOGETHER WITH M.DUPUIS, J.A.MONTGOMERY       *
          *         J.COMPUT.CHEM.  14, 1347-1363(1993)        *
          **************** 64 BIT LINUX VERSION ****************

  SINCE 1993, STUDENTS AND POSTDOCS WORKING AT IOWA STATE UNIVERSITY
  AND ALSO IN THEIR VARIOUS JOBS AFTER LEAVING ISU HAVE MADE IMPORTANT
  CONTRIBUTIONS TO THE CODE:
     IVANA ADAMOVIC, CHRISTINE AIKENS, YURI ALEXEEV, POOJA ARORA,
     ANDREY ASADCHEV, ROB BELL, PRADIPTA BANDYOPADHYAY, JONATHAN BENTZ,
     COLLEEN BERTONI, BRETT BODE, KURT BRORSEN, CALEB CARLIN, GALINA CHABAN,
     WEI CHEN, CHEOL HO CHOI, PAUL DAY, ALBERT DEFUSCO, NUWAN DESILVA,
     TIM DUDLEY, DMITRI FEDOROV, ALEX FINDLATER, GRAHAM FLETCHER, 
     MARK FREITAG, KURT GLAESEMANN, ANASTASIA GUNINA,
     DAN KEMP, GRANT MERRILL, NORIYUKI MINEZAWA, JONATHAN MULLIN,
     TAKESHI NAGATA, SEAN NEDD, HEATHER NETZLOFF, BOSILJKA NJEGIC, RYAN OLSON,
     MIKE PAK, BUU PHAM,
     SPENCER PRUITT, LUKE ROSKOP, JIM SHOEMAKER, LYUDMILA SLIPCHENKO,
     TONY SMITH, SAROM SOK LEANG, JIE SONG, TETSUYA TAKETSUGU, SIMON WEBB,
     PENG XU, SOOHAENG YOO, FEDERICO ZAHARIEV

  ADDITIONAL CODE HAS BEEN PROVIDED BY COLLABORATORS IN OTHER GROUPS:
     IOWA STATE UNIVERSITY:
          JOE IVANIC, AARON WEST, LAIMUTIS BYTAUTAS, KLAUS RUEDENBERG
     UNIVERSITY OF TOKYO: KIMIHIKO HIRAO, TAKAHITO NAKAJIMA,
          TAKAO TSUNEDA, MUNEAKI KAMIYA, SUSUMU YANAGISAWA,
          KIYOSHI YAGI, MAHITO CHIBA, SEIKEN TOKURA, NAOAKI KAWAKAMI
     UNIVERSITY OF AARHUS: FRANK JENSEN
     UNIVERSITY OF IOWA: VISVALDAS KAIRYS, HUI LI
     NATIONAL INST. OF STANDARDS AND TECHNOLOGY: WALT STEVENS, DAVID GARMER
     UNIVERSITY OF PISA: BENEDETTA MENNUCCI, JACOPO TOMASI
     UNIVERSITY OF MEMPHIS: HENRY KURTZ, PRAKASHAN KORAMBATH
     UNIVERSITY OF ALBERTA: TOBY ZENG, MARIUSZ KLOBUKOWSKI
     UNIVERSITY OF NEW ENGLAND: MARK SPACKMAN
     MIE UNIVERSITY: HIROAKI UMEDA
     NAT. INST. OF ADVANCED INDUSTRIAL SCIENCE AND TECHNOLOGY: KAZUO KITAURA
     MICHIGAN STATE UNIVERSITY:
          KAROL KOWALSKI, MARTA WLOCH, JEFFREY GOUR, JESSE LUTZ,
          WEI LI, JUN SHEN, J. EMILIANO DEUSTUA, PIOTR PIECUCH
     UNIVERSITY OF MINNESOTA:
          YINAN SHU
     UNIVERSITY OF SILESIA: MONIKA MUSIAL, STANISLAW KUCHARSKI
     FACULTES UNIVERSITAIRES NOTRE-DAME DE LA PAIX:
          OLIVIER QUINET, BENOIT CHAMPAGNE
     UNIVERSITY OF CALIFORNIA - SANTA BARBARA: BERNARD KIRTMAN
     INSTITUTE FOR MOLECULAR SCIENCE:
          KAZUYA ISHIMURA, MICHIO KATOUDA, AND SHIGERU NAGASE
     UNIVERSITY OF NOTRE DAME: ANNA POMOGAEVA, DAN CHIPMAN
     KYUSHU UNIVERSITY:
          HARUYUKI NAKANO,
          FENG LONG GU, JACEK KORCHOWIEC, MARCIN MAKOWSKI, AND YURIKO AOKI,
          HIROTOSHI MORI AND EISAKU MIYOSHI
     PENNSYLVANIA STATE UNIVERSITY:
          TZVETELIN IORDANOV, CHET SWALINA, JONATHAN SKONE,
          SHARON HAMMES-SCHIFFER
     WASEDA UNIVERSITY:
          MASATO KOBAYASHI, TOMOKO AKAMA, TSUGUKI TOUMA,
          TAKESHI YOSHIKAWA, YASUHIRO IKABATA, JUNJI SEINO,
          YUYA NAKAJIMA, HIROMI NAKAI
     NANJING UNIVERSITY: SHUHUA LI
     UNIVERSITY OF NEBRASKA:
          PEIFENG SU, DEJUN SI, NANDUN THELLAMUREGE, YALI WANG, HUI LI
     UNIVERSITY OF ZURICH: ROBERTO PEVERATI, KIM BALDRIDGE
     N. COPERNICUS UNIVERSITY AND JACKSON STATE UNIVERSITY:
          MARIA BARYSZ
     UNIVERSITY OF COPENHAGEN: Jimmy Kromann, CASPER STEINMANN
     TOKYO INSTITUTE OF TECHNOLOGY: HIROYA NAKATA
     NAGOYA UNIVERSITY: YOSHIO NISHIMOTO, STEPHAN IRLE
     MOSCOW STATE UNIVERSITY: VLADIMIR MIRONOV
     A.N.NESMEYANOV INSTITUTE OF ORGANOELEMENT COMPOUNDS OF RUSSIAN ACADEMY OF SCIENCES:
          IGOR S. GERASIMOV

 EXECUTION OF GAMESS BEGUN Sun Nov 14 02:19:46 2021

            ECHO OF THE FIRST FEW INPUT CARDS -
 INPUT CARD>!File created by the GAMESS Input Deck Generator Plugin for Avogadro            
 INPUT CARD> $BASIS GBASIS=STO NGAUSS=3 $END                                                
 INPUT CARD> $CONTRL SCFTYP=RHF RUNTYP=SADPOINT NZVAR=1 mult=1  ICHARG=0 $END               
 INPUT CARD> $STATPT hssend=.t. OPTTOL=0.0005 NSTEP=50 $END                                 
 INPUT CARD> $STATPT HESS=calc ihrep=5 $END                                                 
 INPUT CARD> $FORCE nvib=2 $END                                                             
 INPUT CARD> $ZMAT DLC=.t. auto=.t. nonvdw(1)=2,12,3,13,17,2,2,3 $END                       
 INPUT CARD>!$ZMAT IFZMAT(1)=1,2,12,1,3,13 fvalue(1)=2.00,2.00 $END                         
 INPUT CARD>                                                                                
 INPUT CARD> $DATA                                                                          
 INPUT CARD>Title                                                                           
 INPUT CARD>C1                                                                              
 INPUT CARD>C     6.0    -0.97230583    -0.99111533     0.31101593                          
 INPUT CARD>C     6.0    -1.61811352     0.24641716    -0.33163267                          
 INPUT CARD>C     6.0    -0.66935742     1.18494833    -0.61095697                          
 INPUT CARD>C     6.0     0.73627490     0.69125611    -0.26128307                          
 INPUT CARD>C     6.0     0.47717354    -0.54715037     0.63590789                          
 INPUT CARD>H     1.0    -0.98208350    -1.79844952    -0.42142183                          
 INPUT CARD>H     1.0    -1.51360714    -1.33269632     1.18983674                          
 INPUT CARD>H     1.0     1.33742595     1.45020115     0.23265730                          
 INPUT CARD>H     1.0     1.24016285     0.40959293    -1.18599951                          
 INPUT CARD>H     1.0     0.55371958    -0.26708868     1.68248892                          
 INPUT CARD>H     1.0     1.19509828    -1.34019876     0.44602716                          
 INPUT CARD>B     5.0    -1.60785675     1.76936746     0.96471500                          
 INPUT CARD>H     1.0    -0.69430023     2.47184515     0.91981882                          
 INPUT CARD>H     1.0    -1.60287404     1.07609606     1.88671052                          
 INPUT CARD>H     1.0    -2.60075593     2.27294660     0.66471338                          
 INPUT CARD>H     1.0    -0.82212144     2.01469159    -1.29086280                          
 INPUT CARD>C     6.0    -3.02234268     0.15731330    -0.91769445                          
 INPUT CARD>H     1.0    -3.04345083    -0.63784736    -1.66086507                          
 INPUT CARD>H     1.0    -3.30635357     1.09039283    -1.39264452                          
 INPUT CARD>H     1.0    -3.74825096    -0.07990360    -0.14500323                          
 INPUT CARD> $END                                                                           
    1000000 WORDS OF MEMORY AVAILABLE

     BASIS OPTIONS
     -------------
     GBASIS=STO          IGAUSS=       3      POLAR=NONE    
     NDFUNC=       0     NFFUNC=       0     DIFFSP=       F
     NPFUNC=       0      DIFFS=       F     BASNAM=        


     RUN TITLE
     ---------
 Title                                                                           

 THE POINT GROUP OF THE MOLECULE IS C1      
 THE ORDER OF THE PRINCIPAL AXIS IS     0

 ATOM      ATOMIC                      COORDINATES (BOHR)
           CHARGE         X                   Y                   Z
 C           6.0    -1.8373915950       -1.8729363959        0.5877348855
 C           6.0    -3.0577911698        0.4656609111       -0.6266948749
 C           6.0    -1.2649021116        2.2392276533       -1.1545412636
 C           6.0     1.3913578126        1.3062846352       -0.4937534075
 C           6.0     0.9017272392       -1.0339642734        1.2016916655
 H           1.0    -1.8558687121       -3.3985767955       -0.7963717839
 H           1.0    -2.8603027477       -2.5184308696        2.2484654087
 H           1.0     2.5273685744        2.7404828006        0.4396585460
 H           1.0     2.3435679667        0.7740184042       -2.2412140955
 H           1.0     1.0463782802       -0.5047244196        3.1794430362
 H           1.0     2.2584082776       -2.5326084255        0.8428691155
 B           5.0    -3.0384086850        3.3436196710        1.8230470062
 H           1.0    -1.3120371879        4.6711100176        1.7382055281
 H           1.0    -3.0289927284        2.0335266899        3.5653659010
 H           1.0    -4.9147160686        4.2952462587        1.2561261486
 H           1.0    -1.5535842502        3.8072150549       -2.4393769797
 C           6.0    -5.7113995062        0.2972790312       -1.7341910510
 H           1.0    -5.7512881258       -1.2053567324       -3.1385798849
 H           1.0    -6.2481022658        2.0605436677       -2.6317165411
 H           1.0    -7.0831672476       -0.1509959094       -0.2740163720

          INTERNUCLEAR DISTANCES (ANGS.)
          ------------------------------

                1 C          2 C          3 C          4 C          5 C     

   1 C       0.0000000    1.5367340 *  2.3826592 *  2.4651872 *  1.5503710 *
   2 C       1.5367340 *  0.0000000    1.3634519 *  2.3970765 *  2.4405147 *
   3 C       2.3826592 *  1.3634519 *  0.0000000    1.5302961 *  2.4226785 *
   4 C       2.4651872 *  2.3970765 *  1.5302961 *  0.0000000    1.5510434 *
   5 C       1.5503710 *  2.4405147 *  2.4226785 *  1.5510434 *  0.0000000  
   6 H       1.0901143 *  2.1433796 *  3.0057252    3.0293620    2.1938840 *
   7 H       1.0872032 *  2.1953109 *  3.2084498    3.3562034    2.2106848 *
   8 H       3.3617000    3.2407920    2.1929942 *  1.0869026 *  2.2117998 *
   9 H       3.0162985    2.9876936 *  2.1396536 *  1.0901090 *  2.1947339 *
  10 H       2.1757542 *  3.0061991    2.9772845 *  2.1748565 *  1.0861057 *
  11 H       2.1994835 *  3.3220875    3.3120656    2.1994580 *  1.0864605 *
  12 B       2.9071485 *  2.0000000 *  1.9248555 *  2.8566324 *  3.1339624  
  13 H       3.5270417    2.7151596 *  2.0000000 *  2.5713895 *  3.2507369  
  14 H       2.6746575 *  2.3684691 *  2.6686410 *  3.1989992    2.9199373 *
  15 H       3.6648400    2.4627450 *  2.5576112 *  3.8072285    4.1746169  
  16 H       3.4093175    2.1634510 *  1.0835509 *  2.2891298 *  3.4588505  
  17 C       2.6516539 *  1.5242268 *  2.5858579 *  3.8526844    3.8931431  
  18 H       2.8814501 *  2.1401797 *  3.1719412    4.2440161    4.2045437  
  19 H       3.5613079    2.1652241 *  2.7520401 *  4.2168867    4.5947416  
  20 H       2.9570478 *  2.1630537 *  3.3610339    4.5518327    4.3223089  

                6 H          7 H          8 H          9 H         10 H     

   1 C       1.0901143 *  1.0872032 *  3.3617000    3.0162985    2.1757542 *
   2 C       2.1433796 *  2.1953109 *  3.2407920    2.9876936 *  3.0061991  
   3 C       3.0057252    3.2084498    2.1929942 *  2.1396536 *  2.9772845 *
   4 C       3.0293620    3.3562034    1.0869026 *  1.0901090 *  2.1748565 *
   5 C       2.1938840 *  2.2106848 *  2.2117998 *  2.1947339 *  1.0861057 *
   6 H       0.0000000    1.7594310 *  4.0449567    3.2246565    3.0216217  
   7 H       1.7594310 *  0.0000000    4.0974505    4.0327929    2.3774073 *
   8 H       4.0449567    4.0974505    0.0000000    1.7620763 *  2.3801873 *
   9 H       3.2246565    4.0327929    1.7620763 *  0.0000000    3.0261078  
  10 H       3.0216217    2.3774073 *  2.3801873 *  3.0261078    0.0000000  
  11 H       2.3880080 *  2.8089845 *  2.8021627 *  2.3931805 *  1.7583428 *
  12 B       3.8784385    3.1116495    3.0516333    3.8191328    3.0552848  
  13 H       4.4852160    3.9011164    2.3756807 *  3.5255500    3.1049924  
  14 H       3.7384312    2.5091597 *  3.3942909    4.2389423    2.5488719 *
  15 H       4.5139845    3.8024082    4.0463390    4.6529434    4.1759265  
  16 H       3.9142765    4.2233906    2.7024818 *  2.6154071 *  3.9925280  
  17 C       2.8694864 *  2.9896654 *  4.6906770    4.2783859    4.4417668  
  18 H       2.6706651 *  3.3090388    5.2093622    4.4353100    4.9249480  
  19 H       3.8328729    3.9691952    4.9331284    4.6018477    5.1185317  
  20 H       3.2682548    2.8887576 *  5.3242800    5.1193313    4.6777897  

               11 H         12 B         13 H         14 H         15 H     

   1 C       2.1994835 *  2.9071485 *  3.5270417    2.6746575 *  3.6648400  
   2 C       3.3220875    2.0000000 *  2.7151596 *  2.3684691 *  2.4627450 *
   3 C       3.3120656    1.9248555 *  2.0000000 *  2.6686410 *  2.5576112 *
   4 C       2.1994580 *  2.8566324 *  2.5713895 *  3.1989992    3.8072285  
   5 C       1.0864605 *  3.1339624    3.2507369    2.9199373 *  4.1746169  
   6 H       2.3880080 *  3.8784385    4.4852160    3.7384312    4.5139845  
   7 H       2.8089845 *  3.1116495    3.9011164    2.5091597 *  3.8024082  
   8 H       2.8021627 *  3.0516333    2.3756807 *  3.3942909    4.0463390  
   9 H       2.3931805 *  3.8191328    3.5255500    4.2389423    4.6529434  
  10 H       1.7583428 *  3.0552848    3.1049924    2.5488719 *  4.1759265  
  11 H       0.0000000    4.2184116    4.2808859    3.9677069    5.2451075  
  12 B       4.2184116    0.0000000    1.1532892 *  1.1535709 *  1.1530142 *
  13 H       4.2808859    1.1532892 *  0.0000000    1.9257470 *  1.9337044 *
  14 H       3.9677069    1.1535709 *  1.9257470 *  0.0000000    1.9802769 *
  15 H       5.2451075    1.1530142 *  1.9337044 *  1.9802769 *  0.0000000  
  16 H       4.2826687    2.4010821 *  2.2610707 *  3.4040429    2.6560336 *
  17 C       4.6785775    2.8535862 *  3.7620864    3.2747122    2.6753793 *
  18 H       4.7851427    3.8404797    4.6742513    4.1950156    3.7519349  
  19 H       5.4361345    2.9837966 *  3.7521620    3.6954318    2.4756864 *
  20 H       5.1355976    3.0385137    4.1196945    3.1728281    2.7401259 *

               16 H         17 C         18 H         19 H         20 H     

   1 C       3.4093175    2.6516539 *  2.8814501 *  3.5613079    2.9570478 *
   2 C       2.1634510 *  1.5242268 *  2.1401797 *  2.1652241 *  2.1630537 *
   3 C       1.0835509 *  2.5858579 *  3.1719412    2.7520401 *  3.3610339  
   4 C       2.2891298 *  3.8526844    4.2440161    4.2168867    4.5518327  
   5 C       3.4588505    3.8931431    4.2045437    4.5947416    4.3223089  
   6 H       3.9142765    2.8694864 *  2.6706651 *  3.8328729    3.2682548  
   7 H       4.2233906    2.9896654 *  3.3090388    3.9691952    2.8887576 *
   8 H       2.7024818 *  4.6906770    5.2093622    4.9331284    5.3242800  
   9 H       2.6154071 *  4.2783859    4.4353100    4.6018477    5.1193313  
  10 H       3.9925280    4.4417668    4.9249480    5.1185317    4.6777897  
  11 H       4.2826687    4.6785775    4.7851427    5.4361345    5.1355976  
  12 B       2.4010821 *  2.8535862 *  3.8404797    2.9837966 *  3.0385137  
  13 H       2.2610707 *  3.7620864    4.6742513    3.7521620    4.1196945  
  14 H       3.4040429    3.2747122    4.1950156    3.6954318    3.1728281  
  15 H       2.6560336 *  2.6753793 *  3.7519349    2.4756864 *  2.7401259 *
  16 H       0.0000000    2.9034604 *  3.4795357    2.6525642 *  3.7765801  
  17 C       2.9034604 *  0.0000000    1.0885902 *  1.0848397 *  1.0864007 *
  18 H       3.4795357    1.0885902 *  0.0000000    1.7685797 *  1.7623512 *
  19 H       2.6525642 *  1.0848397 *  1.7685797 *  0.0000000    1.7667699 *
  20 H       3.7765801    1.0864007 *  1.7623512 *  1.7667699 *  0.0000000  

  * ... LESS THAN  3.000


     ATOMIC BASIS SET
     ----------------
 THE CONTRACTED PRIMITIVE FUNCTIONS HAVE BEEN UNNORMALIZED
 THE CONTRACTED BASIS FUNCTIONS ARE NOW NORMALIZED TO UNITY

  SHELL TYPE  PRIMITIVE        EXPONENT          CONTRACTION COEFFICIENT(S)

 C         

      1   S       1            71.6168373    0.154328967295
      1   S       2            13.0450963    0.535328142282
      1   S       3             3.5305122    0.444634542185

      2   L       4             2.9412494   -0.099967229187    0.155916274999
      2   L       5             0.6834831    0.399512826089    0.607683718598
      2   L       6             0.2222899    0.700115468880    0.391957393099

 C         

      3   S       7            71.6168373    0.154328967295
      3   S       8            13.0450963    0.535328142282
      3   S       9             3.5305122    0.444634542185

      4   L      10             2.9412494   -0.099967229187    0.155916274999
      4   L      11             0.6834831    0.399512826089    0.607683718598
      4   L      12             0.2222899    0.700115468880    0.391957393099

 C         

      5   S      13            71.6168373    0.154328967295
      5   S      14            13.0450963    0.535328142282
      5   S      15             3.5305122    0.444634542185

      6   L      16             2.9412494   -0.099967229187    0.155916274999
      6   L      17             0.6834831    0.399512826089    0.607683718598
      6   L      18             0.2222899    0.700115468880    0.391957393099

 C         

      7   S      19            71.6168373    0.154328967295
      7   S      20            13.0450963    0.535328142282
      7   S      21             3.5305122    0.444634542185

      8   L      22             2.9412494   -0.099967229187    0.155916274999
      8   L      23             0.6834831    0.399512826089    0.607683718598
      8   L      24             0.2222899    0.700115468880    0.391957393099

 C         

      9   S      25            71.6168373    0.154328967295
      9   S      26            13.0450963    0.535328142282
      9   S      27             3.5305122    0.444634542185

     10   L      28             2.9412494   -0.099967229187    0.155916274999
     10   L      29             0.6834831    0.399512826089    0.607683718598
     10   L      30             0.2222899    0.700115468880    0.391957393099

 H         

     11   S      31             3.4252509    0.154328967295
     11   S      32             0.6239137    0.535328142282
     11   S      33             0.1688554    0.444634542185

 H         

     12   S      34             3.4252509    0.154328967295
     12   S      35             0.6239137    0.535328142282
     12   S      36             0.1688554    0.444634542185

 H         

     13   S      37             3.4252509    0.154328967295
     13   S      38             0.6239137    0.535328142282
     13   S      39             0.1688554    0.444634542185

 H         

     14   S      40             3.4252509    0.154328967295
     14   S      41             0.6239137    0.535328142282
     14   S      42             0.1688554    0.444634542185

 H         

     15   S      43             3.4252509    0.154328967295
     15   S      44             0.6239137    0.535328142282
     15   S      45             0.1688554    0.444634542185

 H         

     16   S      46             3.4252509    0.154328967295
     16   S      47             0.6239137    0.535328142282
     16   S      48             0.1688554    0.444634542185

 B         

     17   S      49            48.7911132    0.154328967295
     17   S      50             8.8873622    0.535328142282
     17   S      51             2.4052670    0.444634542185

     18   L      52             2.2369561   -0.099967229187    0.155916274999
     18   L      53             0.5198205    0.399512826089    0.607683718598
     18   L      54             0.1690618    0.700115468880    0.391957393099

 H         

     19   S      55             3.4252509    0.154328967295
     19   S      56             0.6239137    0.535328142282
     19   S      57             0.1688554    0.444634542185

 H         

     20   S      58             3.4252509    0.154328967295
     20   S      59             0.6239137    0.535328142282
     20   S      60             0.1688554    0.444634542185

 H         

     21   S      61             3.4252509    0.154328967295
     21   S      62             0.6239137    0.535328142282
     21   S      63             0.1688554    0.444634542185

 H         

     22   S      64             3.4252509    0.154328967295
     22   S      65             0.6239137    0.535328142282
     22   S      66             0.1688554    0.444634542185

 C         

     23   S      67            71.6168373    0.154328967295
     23   S      68            13.0450963    0.535328142282
     23   S      69             3.5305122    0.444634542185

     24   L      70             2.9412494   -0.099967229187    0.155916274999
     24   L      71             0.6834831    0.399512826089    0.607683718598
     24   L      72             0.2222899    0.700115468880    0.391957393099

 H         

     25   S      73             3.4252509    0.154328967295
     25   S      74             0.6239137    0.535328142282
     25   S      75             0.1688554    0.444634542185

 H         

     26   S      76             3.4252509    0.154328967295
     26   S      77             0.6239137    0.535328142282
     26   S      78             0.1688554    0.444634542185

 H         

     27   S      79             3.4252509    0.154328967295
     27   S      80             0.6239137    0.535328142282
     27   S      81             0.1688554    0.444634542185

 TOTAL NUMBER OF BASIS SET SHELLS             =   27
 NUMBER OF CARTESIAN GAUSSIAN BASIS FUNCTIONS =   48
 NUMBER OF ELECTRONS                          =   54
 CHARGE OF MOLECULE                           =    0
 SPIN MULTIPLICITY                            =    1
 NUMBER OF OCCUPIED ORBITALS (ALPHA)          =   27
 NUMBER OF OCCUPIED ORBITALS (BETA )          =   27
 TOTAL NUMBER OF ATOMS                        =   20
 THE NUCLEAR REPULSION ENERGY IS      309.6479207256

     $CONTRL OPTIONS
     ---------------
 SCFTYP=RHF          RUNTYP=SADPOINT     EXETYP=RUN     
 MPLEVL=       0     CITYP =NONE         CCTYP =NONE         VBTYP =NONE    
 DFTTYP=NONE         TDDFT =NONE    
 MULT  =       1     ICHARG=       0     NZVAR =       1     COORD =UNIQUE  
 PP    =NONE         RELWFN=NONE         LOCAL =NONE         NUMGRD=       F
 ISPHER=      -1     NOSYM =       0     MAXIT =      30     UNITS =ANGS    
 PLTORB=       F     MOLPLT=       F     AIMPAC=       F     FRIEND=        
 NPRINT=       7     IREST =       0     GEOM  =INPUT   
 NORMF =       0     NORMP =       0     ITOL  =      20     ICUT  =       9
 INTTYP=BEST         GRDTYP=BEST         QMTTOL= 1.0E-06

     $SYSTEM OPTIONS
     ---------------
  REPLICATED MEMORY=     1000000 WORDS (ON EVERY NODE).
 DISTRIBUTED MEMDDI=           0 MILLION WORDS IN AGGREGATE,
 MEMDDI DISTRIBUTED OVER   1 PROCESSORS IS           0 WORDS/PROCESSOR.
 TOTAL MEMORY REQUESTED ON EACH PROCESSOR=     1000000 WORDS.
 TIMLIM=      525600.00 MINUTES, OR     365.0 DAYS.
 PARALL= F  BALTYP=  DLB     KDIAG=    0  COREFL= F
 MXSEQ2=     300 MXSEQ3=     150  mem10=         0

          ----------------
          PROPERTIES INPUT
          ----------------

     MOMENTS            FIELD           POTENTIAL          DENSITY
 IEMOM =       1   IEFLD =       0   IEPOT =       0   IEDEN =       0
 WHERE =COMASS     WHERE =NUCLEI     WHERE =NUCLEI     WHERE =NUCLEI  
 OUTPUT=BOTH       OUTPUT=BOTH       OUTPUT=BOTH       OUTPUT=BOTH    
 IEMINT=       0   IEFINT=       0                     IEDINT=       0
                                                       MORB  =       0
          EXTRAPOLATION IN EFFECT
          SOSCF IN EFFECT
 ORBITAL PRINTING OPTION: NPREO=     1    48     2     1

     -------------------------------
     INTEGRAL TRANSFORMATION OPTIONS
     -------------------------------
     NWORD  =            0
     CUTOFF = 1.0E-09     MPTRAN =       0
     DIRTRF =       F     AOINTS =DUP     

          ----------------------
          INTEGRAL INPUT OPTIONS
          ----------------------
 NOPK  =       1 NORDER=       0 SCHWRZ=       T


 -----------------------------------------------
  STATISTICS ON AUTOMATIC COORDINATE GENERATION 
 -----------------------------------------------
  NUMBER OF USER SPECIFIED BONDS                             4
  NUMBER OF BONDS                                           24
  NUMBER OF ANGLES                                          65
  NUMBER OF TORSIONS                                        90
  NUMBER OF EXTRA COORD.                                     0
  NUMBER OF EXTRA COORD. FOR CONSTRAINTS                     0
  NUMBER OF CONSTRAINED COORD.                               0

  TOTAL NUMBER OF PRIMITIVES                               179
 -----------------------------------------------

   --- ENCODED Z MATRIX ---
 COORD  TYPE   I   J   K   L   M   N
    1      1    1   6
    2      1    1   2
    3      1    1   5
    4      1    1   7
    5      1    2   3
    6      1    2  12
    7      1    2   3
    8      1    2  17
    9      1    2  17
   10      1    3  12
   11      1    3   4
   12      1    3  13
   13      1    3  16
   14      1    4   5
   15      1    4   9
   16      1    4   8
   17      1    5  11
   18      1    5  10
   19      1   12  15
   20      1   12  14
   21      1   12  13
   22      1   17  20
   23      1   17  19
   24      1   17  18
   25      2    1   2  17
   26      2    1   5  11
   27      2    1   2   3
   28      2    1   2  17
   29      2    1   2   3
   30      2    1   5  10
   31      2    1   2  12
   32      2    1   5   4
   33      2    2  12  13
   34      2    2   3  12
   35      2    2  12   3
   36      2    2  12  15
   37      2    2  12  14
   38      2    2   3  13
   39      2    2  17  20
   40      2    2  17  19
   41      2    2   3  13
   42      2    2  17  18
   43      2    2  17  20
   44      2    2   1   7
   45      2    2   3   4
   46      2    2  17  19
   47      2    2   3  12
   48      2    2   3  16
   49      2    2   3   4
   50      2    2   1   6
   51      2    2   1   5
   52      2    2   3  16
   53      2    2  17  18
   54      2    3   2  12
   55      2    3   2  17
   56      2    3   2  17
   57      2    3  13  12
   58      2    3   4   9
   59      2    3   4   5
   60      2    3  12  13
   61      2    3  12  14
   62      2    3  12  15
   63      2    3   2  12
   64      2    3   2  17
   65      2    3   2  17
   66      2    3   4   8
   67      2    4   5  11
   68      2    4   3  16
   69      2    4   3  13
   70      2    4   3  12
   71      2    4   5  10
   72      2    5   4   8
   73      2    5   4   9
   74      2    5   1   7
   75      2    5   1   6
   76      2    6   1   7
   77      2    8   4   9
   78      2   10   5  11
   79      2   12   2  17
   80      2   12   2  17
   81      2   12   3  16
   82      2   12   3  13
   83      2   13  12  14
   84      2   13  12  15
   85      2   13   3  16
   86      2   14  12  15
   87      2   18  17  19
   88      2   18  17  20
   89      2   19  17  20
   90      3    1   2   3  13
   91      3    1   2   3   4
   92      3    1   2   3  12
   93      3    1   2  17  18
   94      3    1   5   4   8
   95      3    1   5   4   9
   96      3    1   5   4   3
   97      3    1   2  17  19
   98      3    1   2  12  13
   99      3    1   2  12  14
  100      3    1   2  12  15
  101      3    1   2  12   3
  102      3    1   2   3  16
  103      3    1   2  17  20
  104      3    2  12   3  16
  105      3    2   1   5  10
  106      3    2  12   3  13
  107      3    2  12   3   4
  108      3    2   3  12  13
  109      3    2   3  12  14
  110      3    2   3   4   8
  111      3    2   3   4   9
  112      3    2   3  12  15
  113      3    2   3   4   5
  114      3    2  12  13   3
  115      3    2   1   5   4
  116      3    2   3  13  12
  117      3    2   1   5  11
  118      3    3  12   2  17
  119      3    3   2   1   7
  120      3    3   4   5  10
  121      3    3   4   5  11
  122      3    3   2  12  13
  123      3    3   2  17  18
  124      3    3  13  12  14
  125      3    3   2   1   5
  126      3    3  13  12  15
  127      3    3   2  17  19
  128      3    3   2  17  20
  129      3    3   2   1   6
  130      3    3   2  12  14
  131      3    3   2  12  15
  132      3    4   3   2  17
  133      3    4   3   2  12
  134      3    4   3  12  15
  135      3    4   3  12  14
  136      3    4   3  12  13
  137      3    4   3  13  12
  138      3    4   5   1   7
  139      3    4   5   1   6
  140      3    5   4   3  16
  141      3    5   4   3  13
  142      3    5   4   3  12
  143      3    5   1   2  17
  144      3    5   1   2  12
  145      3    6   1   5  10
  146      3    6   1   5  11
  147      3    6   1   2  17
  148      3    6   1   2  12
  149      3    7   1   2  17
  150      3    7   1   5  11
  151      3    7   1   2  12
  152      3    7   1   5  10
  153      3    8   4   5  10
  154      3    8   4   5  11
  155      3    8   4   3  16
  156      3    8   4   3  13
  157      3    8   4   3  12
  158      3    9   4   5  10
  159      3    9   4   5  11
  160      3    9   4   3  16
  161      3    9   4   3  13
  162      3    9   4   3  12
  163      3   12   2   3  16
  164      3   12   3   2  17
  165      3   12   2  17  18
  166      3   12  13   3  16
  167      3   12   2  17  19
  168      3   12   2  17  20
  169      3   12   2   3  13
  170      3   13   3  12  15
  171      3   13   3  12  14
  172      3   13  12   3  16
  173      3   13  12   2  17
  174      3   13   3   2  17
  175      3   14  12   3  16
  176      3   14  12   2  17
  177      3   15  12   3  16
  178      3   15  12   2  17
  179      3   16   3   2  17

          INDEP./SYM. INTERNAL COORDINATES
          --------------------------------
 CRD  1=  -0.4469 (  2) -0.1959 (  3)  0.1511 (  6) -0.2574 ( 25) -0.2574 ( 28)
           0.1293 ( 40) -0.1157 ( 42)  0.1293 ( 46) -0.1157 ( 53)  0.1566 ( 55)
           0.1566 ( 56) -0.1186 ( 59)  0.1566 ( 64)  0.1566 ( 65)  0.1441 ( 79)
           0.1441 ( 80) -0.1210 (118) -0.1323 (173) -0.1126 (176) -0.1207 (178)
 CRD  2=  -0.1794 (  2) -0.2929 ( 11) -0.1345 ( 14) -0.1262 ( 17) -0.1433 ( 19)
          -0.1626 ( 31)  0.1533 ( 32)  0.1324 ( 50) -0.1546 ( 51)  0.1141 ( 58)
          -0.1245 ( 59) -0.2101 ( 69) -0.1775 ( 70)  0.1013 ( 81)  0.1881 ( 90)
           0.1926 ( 92)  0.1179 ( 99) -0.1413 (105) -0.1114 (107) -0.1191 (117)
           0.1296 (120)  0.1294 (121) -0.2139 (133) -0.1162 (140)  0.1190 (143)
           0.1151 (144) -0.1203 (163)  0.1166 (164)  0.1122 (174)  0.1001 (176)
 CRD  3=  -0.1204 (  5)  0.2160 (  6) -0.1204 (  7) -0.1394 (  8) -0.1394 (  9)
          -0.3948 ( 11) -0.1075 ( 16)  0.1006 ( 30)  0.1143 ( 39) -0.1890 ( 42)
           0.1143 ( 43) -0.1890 ( 53) -0.1440 ( 58)  0.1176 ( 59)  0.1090 ( 79)
           0.1090 ( 80)  0.1074 ( 91)  0.1300 ( 95)  0.1346 ( 97) -0.1124 (110)
           0.1064 (118)  0.2141 (132) -0.1934 (143) -0.1071 (149)  0.1469 (164)
           0.1582 (174)  0.1074 (179)
 CRD  4=   0.2134 (  2)  0.1458 (  3)  0.2522 (  6)  0.3808 (  8)  0.3808 (  9)
           0.1605 ( 11)  0.1005 ( 24)  0.1730 ( 39)  0.1858 ( 40)  0.1730 ( 43)
           0.1858 ( 46)  0.1481 ( 79)  0.1481 ( 80) -0.1423 ( 87) -0.1338 ( 88)
          -0.1386 ( 89)  0.1234 (164)  0.1202 (174)
 CRD  5=   0.1446 (  1)  0.3138 (  2)  0.1376 (  6) -0.2673 ( 11) -0.1046 ( 15)
          -0.1452 ( 30)  0.1188 ( 31)  0.1870 ( 44) -0.1422 ( 51)  0.1318 ( 59)
          -0.2117 ( 66) -0.1045 ( 70)  0.1473 ( 71)  0.1057 ( 72) -0.1457 ( 73)
          -0.1024 ( 74)  0.1310 ( 75) -0.1724 ( 91) -0.1007 ( 94)  0.1195 (113)
           0.1070 (120)  0.1473 (125) -0.1477 (132) -0.1144 (138)  0.1535 (141)
           0.1526 (142)  0.1375 (143)  0.1733 (144)
 CRD  6=   0.2066 (  2) -0.1372 (  3)  0.1280 (  4)  0.1722 (  5)  0.1064 (  6)
           0.1722 (  7) -0.2075 ( 14) -0.1378 ( 17) -0.1581 ( 18) -0.1827 ( 26)
           0.4222 ( 32)  0.1564 ( 44)  0.1749 ( 50) -0.2737 ( 51)  0.1147 ( 58)
          -0.2114 ( 59)  0.1417 ( 66) -0.1600 ( 67) -0.1742 ( 71) -0.1170 ( 76)
           0.1784 ( 78)
 CRD  7=  -0.1640 (  2)  0.5211 (  3) -0.1461 ( 11) -0.1092 ( 13) -0.3672 ( 14)
           0.2071 ( 26)  0.1012 ( 30) -0.1379 ( 50) -0.1175 ( 51) -0.1982 ( 67)
           0.1509 ( 74)  0.1675 ( 75)  0.1711 (117) -0.1106 (120) -0.1097 (139)
          -0.1715 (145) -0.1066 (147)  0.1664 (150)  0.1097 (154) -0.1111 (158)
 CRD  8=   0.1059 (  2)  0.3088 (  3)  0.1927 (  4)  0.1622 (  5)  0.1622 (  7)
           0.5652 ( 14)  0.1930 ( 16)  0.1204 ( 17)  0.1037 ( 27)  0.1037 ( 29)
           0.1261 ( 72)  0.1471 ( 73)  0.1067 ( 74)  0.1014 (111)  0.1095 (162)
 CRD  9=   0.1101 (  1) -0.1307 (  2)  0.1722 (  3)  0.2568 (  6)  0.2285 ( 10)
           0.2949 ( 11)  0.1661 ( 15) -0.1240 ( 33)  0.2061 ( 37) -0.1766 ( 40)
          -0.1429 ( 44) -0.1766 ( 46)  0.2268 ( 58) -0.1211 ( 59)  0.1410 ( 61)
           0.1181 ( 72) -0.1137 ( 86) -0.1264 (115)  0.1064 (119)  0.1079 (120)
           0.1352 (121)  0.1348 (124)  0.1041 (173)  0.1045 (178)
 CRD 10=  -0.1847 (  1) -0.1999 (  2) -0.1385 (  3) -0.1110 (  6) -0.1926 ( 30)
           0.2970 ( 39) -0.1596 ( 40)  0.2970 ( 43)  0.1801 ( 44) -0.1596 ( 46)
          -0.2481 ( 50) -0.1619 ( 67)  0.1941 ( 71) -0.1614 ( 74) -0.1030 ( 96)
           0.1192 ( 97)  0.2042 (105)  0.1711 (117) -0.1263 (138) -0.1600 (139)
          -0.1144 (149)
 CRD 11=   0.2221 (  2)  0.1021 (  4) -0.1197 (  6) -0.1398 (  8) -0.1398 (  9)
           0.2600 ( 11)  0.2338 ( 13)  0.1461 ( 23) -0.1950 ( 24)  0.1043 ( 26)
          -0.1353 ( 37)  0.1556 ( 40) -0.3833 ( 42)  0.1556 ( 46) -0.3833 ( 53)
           0.1282 ( 58) -0.1305 ( 61)  0.1639 ( 88) -0.1118 ( 95)  0.1000 (121)
          -0.1409 (124)
 CRD 12=   0.1049 (  1) -0.1608 ( 10)  0.1776 ( 11)  0.2516 ( 13) -0.1926 ( 15)
          -0.1751 ( 20) -0.1764 ( 23)  0.1528 ( 30)  0.1370 ( 39) -0.3082 ( 40)
           0.1370 ( 43) -0.1000 ( 45) -0.3082 ( 46) -0.1000 ( 49)  0.1511 ( 66)
           0.1550 ( 68) -0.1369 ( 71) -0.1454 ( 72)  0.1242 ( 94) -0.1272 (120)
           0.1021 (137)  0.1092 (156)
 CRD 13=   0.1610 (  1) -0.2065 (  4) -0.1032 ( 11) -0.1936 ( 13)  0.2559 ( 22)
          -0.2311 ( 24) -0.1274 ( 36)  0.2860 ( 39) -0.2298 ( 42)  0.2860 ( 43)
          -0.1429 ( 44)  0.1520 ( 50) -0.2298 ( 53) -0.1275 ( 62)  0.1041 ( 87)
          -0.1707 ( 89) -0.1008 (100) -0.1366 (105) -0.1424 (117)  0.1342 (126)
          -0.1050 (165) -0.1105 (167) -0.1150 (168)
 CRD 14=  -0.1303 (  5) -0.1303 (  7) -0.1146 ( 10)  0.1143 ( 11) -0.1443 ( 13)
           0.1393 ( 16) -0.2277 ( 17)  0.2303 ( 18) -0.2090 ( 19) -0.1790 ( 22)
           0.1988 ( 23) -0.1181 ( 26)  0.1127 ( 30) -0.1674 ( 36)  0.1482 ( 37)
          -0.1348 ( 39)  0.1770 ( 40) -0.1348 ( 43)  0.1770 ( 46) -0.1248 ( 48)
          -0.1248 ( 52)  0.1018 ( 61) -0.1507 ( 62)  0.1702 ( 66)  0.1071 ( 68)
           0.1754 ( 94)  0.1276 ( 95) -0.1157 (104)  0.1002 (112) -0.1186 (120)
          -0.1138 (121)  0.1249 (124)  0.1577 (126) -0.1106 (138) -0.1039 (139)
           0.1130 (173)
 CRD 15=   0.1076 (  1)  0.2663 ( 15) -0.1482 ( 16) -0.3528 ( 17)  0.4691 ( 18)
           0.1307 ( 19) -0.1070 ( 23)  0.1269 ( 44) -0.1084 ( 67)  0.1352 ( 71)
           0.1034 ( 73)  0.1604 ( 94)  0.1614 ( 95)  0.1341 ( 96) -0.1189 (115)
          -0.2052 (138) -0.1841 (139) -0.1017 (141) -0.1122 (142)
 CRD 16=   0.2468 (  1) -0.2344 (  4) -0.1270 ( 15)  0.1508 ( 16) -0.1050 ( 24)
           0.2799 ( 93)  0.2601 ( 97)  0.2746 (103)  0.2476 (123)  0.2277 (127)
           0.2422 (128)  0.2664 (165)  0.2466 (167)  0.2611 (168)
 CRD 17=  -0.3458 ( 13) -0.2046 ( 15)  0.3173 ( 16)  0.2747 ( 19) -0.1536 ( 20)
          -0.1006 ( 26)  0.1773 ( 36) -0.1113 ( 61)  0.1861 ( 62)  0.1025 ( 67)
          -0.1305 ( 74)  0.1267 ( 75) -0.1175 ( 93) -0.1045 ( 97) -0.1098 (103)
          -0.1030 (119) -0.1090 (121) -0.1210 (123) -0.1464 (124) -0.1810 (126)
          -0.1081 (127) -0.1133 (128) -0.1103 (129) -0.1113 (134) -0.1072 (147)
          -0.1164 (148) -0.1091 (151) -0.1105 (165) -0.1028 (168)
 CRD 18=   0.1411 (  1) -0.1568 (  4)  0.1347 ( 10)  0.4618 ( 13) -0.1585 ( 15)
           0.4277 ( 20)  0.1507 ( 37)  0.1744 ( 61) -0.1612 ( 74)  0.1623 ( 75)
          -0.1268 (119)  0.1617 (124)  0.1103 (126) -0.1340 (129) -0.1249 (147)
          -0.1655 (148) -0.1177 (149) -0.1584 (151)
 CRD 19=  -0.5353 ( 22) -0.5179 ( 23) -0.5218 ( 24)  0.1263 ( 39)  0.1271 ( 40)
           0.1247 ( 42)  0.1263 ( 43)  0.1271 ( 46)  0.1247 ( 53) -0.1286 ( 87)
          -0.1269 ( 88) -0.1331 ( 89)
 CRD 20=   0.2280 (  1) -0.2873 (  4) -0.1878 ( 13)  0.2642 ( 15) -0.2509 ( 16)
           0.1383 ( 17) -0.1654 ( 19) -0.2744 ( 20) -0.1838 ( 21) -0.1219 ( 22)
          -0.1744 ( 74)  0.1808 ( 75) -0.1962 (119) -0.2064 (129) -0.1871 (147)
          -0.1760 (148) -0.1769 (149) -0.1658 (151)  0.1090 (157)  0.1130 (162)
 CRD 21=  -0.1554 (  1) -0.1976 ( 12)  0.1034 ( 16) -0.2860 ( 19) -0.2662 ( 20)
          -0.1263 ( 21) -0.2396 ( 24) -0.1197 ( 33)  0.1261 ( 36)  0.1407 ( 37)
           0.1341 ( 57) -0.1762 ( 58) -0.1121 ( 60)  0.1495 ( 61)  0.1300 ( 62)
           0.1535 ( 66) -0.1563 ( 72)  0.1769 ( 73) -0.1673 ( 86)  0.1587 (110)
           0.1751 (111)  0.1210 (124)  0.1139 (153)  0.1124 (154)  0.1133 (155)
           0.1242 (157)  0.1388 (158)  0.1373 (159)  0.1297 (160)  0.1069 (161)
           0.1405 (162)
 CRD 22=  -0.1892 ( 13) -0.1183 ( 16)  0.1502 ( 17)  0.5512 ( 19)  0.3961 ( 20)
          -0.1004 ( 58)  0.1223 ( 66) -0.1477 ( 72)  0.1515 ( 73)  0.1064 ( 86)
           0.1272 (110)  0.1375 (111)  0.1392 (153)  0.1229 (154)  0.1646 (156)
           0.1389 (157)  0.1253 (158)  0.1090 (159)  0.1749 (161)  0.1492 (162)
 CRD 23=  -0.3720 (  1) -0.3174 (  4) -0.1218 ( 15)  0.4893 ( 17)  0.5306 ( 18)
          -0.1310 ( 76)  0.1872 ( 78)  0.1298 (146) -0.1311 (152) -0.1076 (159)
 CRD 24=   0.3159 (  1)  0.4134 (  4) -0.3549 ( 15) -0.4125 ( 16)  0.2272 ( 17)
           0.2055 ( 18)  0.1980 ( 23) -0.2171 ( 24)  0.1295 ( 76) -0.1188 ( 77)
          -0.1156 ( 88)  0.1205 ( 89) -0.1041 (159)
 CRD 25=  -0.1648 (  1) -0.1847 (  4) -0.1196 ( 17) -0.3378 ( 22)  0.5597 ( 23)
          -0.2055 ( 24) -0.1083 ( 40) -0.1083 ( 46)  0.2105 ( 87) -0.3446 ( 88)
           0.1228 ( 89)  0.1845 ( 93) -0.1678 (103)  0.1838 (123) -0.1685 (128)
           0.1797 (165) -0.1727 (168)
 CRD 26=  -0.1744 (  1) -0.1230 (  4)  0.1430 ( 15)  0.4473 ( 22) -0.4790 ( 24)
          -0.1034 ( 39)  0.1071 ( 42) -0.1034 ( 43)  0.1071 ( 53) -0.2937 ( 87)
           0.3072 ( 89)  0.2211 ( 97)  0.2183 (127)  0.2097 (167) -0.1031 (168)
 CRD 27=   0.2701 (  1)  0.2594 (  4) -0.1149 ( 14)  0.4398 ( 15)  0.4794 ( 16)
           0.3053 ( 17)  0.2010 ( 18)  0.1271 ( 76)  0.1675 ( 77)  0.1002 ( 78)
          -0.1018 (145) -0.1043 (154)  0.1123 (158)
 CRD 28=  -0.3247 (  1)  0.2969 (  4) -0.1727 ( 12)  0.2639 ( 15) -0.2034 ( 16)
          -0.1375 ( 26)  0.1473 ( 30)  0.1486 ( 67) -0.1483 ( 71) -0.1105 (105)
          -0.1071 (117) -0.1117 (120) -0.1025 (121) -0.1036 (138) -0.1102 (139)
          -0.2132 (145) -0.2098 (146) -0.2033 (150) -0.2066 (152) -0.1747 (153)
          -0.1655 (154) -0.1710 (158) -0.1617 (159)
 CRD 29=   0.1539 ( 11) -0.1906 ( 12) -0.1957 ( 13) -0.3425 ( 19)  0.3862 ( 20)
           0.1165 ( 36)  0.1254 ( 83) -0.1454 ( 84) -0.1304 ( 99) -0.1723 (100)
          -0.1452 (109) -0.1942 (112) -0.1413 (131) -0.2175 (134) -0.1684 (135)
          -0.1693 (170) -0.1203 (171) -0.1457 (175) -0.1177 (176) -0.1947 (177)
          -0.1596 (178)
 CRD 30=  -0.2250 ( 12) -0.1938 ( 20)  0.5761 ( 21) -0.1633 ( 33)  0.1611 ( 38)
           0.1611 ( 41) -0.1846 ( 60)  0.1012 ( 61)  0.1894 ( 82)  0.1182 ( 83)
           0.1551 ( 84) -0.1140 ( 85) -0.1858 ( 86) -0.1111 ( 99) -0.1081 (130)
           0.1159 (141)  0.1164 (156)  0.1070 (161)  0.1079 (170) -0.1020 (176)
           0.1029 (179)
 CRD 31=   0.1857 ( 12)  0.2693 ( 17) -0.2881 ( 18) -0.1468 ( 19)  0.2617 ( 21)
           0.1029 ( 44)  0.1870 ( 94)  0.1636 ( 95)  0.1027 ( 96) -0.1169 (105)
          -0.1318 (117)  0.1252 (120)  0.1395 (121) -0.1851 (138) -0.1546 (139)
          -0.1754 (145) -0.1902 (146) -0.2208 (150) -0.2059 (152)  0.2095 (153)
           0.2238 (154)  0.1862 (158)  0.2004 (159)
 CRD 32=   0.1062 ( 10)  0.2502 ( 12) -0.2785 ( 13)  0.1461 ( 15) -0.1318 ( 16)
          -0.3482 ( 19)  0.2844 ( 20)  0.2320 ( 21)  0.1073 ( 98)  0.1295 (100)
          -0.1080 (102)  0.1188 (110) -0.1187 (126)  0.1056 (131)  0.1045 (134)
           0.1252 (136)  0.1143 (137)  0.1291 (140)  0.1653 (155)  0.1361 (156)
           0.1023 (160)  0.1096 (166) -0.1013 (171)
 CRD 33=  -0.4591 ( 12) -0.1306 ( 13) -0.1101 ( 19)  0.1733 ( 20) -0.2530 ( 21)
          -0.1103 ( 33)  0.1682 ( 57) -0.1479 ( 60)  0.1171 ( 69) -0.1286 ( 85)
           0.1094 ( 98)  0.1182 (100)  0.1060 (104) -0.1087 (111)  0.1079 (134)
           0.1496 (135)  0.1316 (136) -0.1103 (140) -0.1024 (155) -0.1805 (160)
          -0.1268 (162)  0.1081 (163)  0.1109 (166)  0.1699 (172)  0.1879 (175)
           0.1462 (177)
 CRD 34=   0.1196 (  1) -0.1289 (  2)  0.3088 ( 13)  0.1130 ( 15) -0.1105 ( 16)
          -0.1243 ( 18)  0.2228 ( 23)  0.1288 ( 36) -0.1130 ( 37)  0.1473 ( 40)
           0.1292 ( 42)  0.1473 ( 46) -0.1044 ( 50)  0.1292 ( 53)  0.1356 ( 74)
           0.1140 ( 78)  0.1079 ( 83) -0.1867 ( 87) -0.1677 ( 89) -0.1155 (109)
          -0.1154 (112)  0.1100 (119) -0.1066 (124) -0.1102 (139) -0.1321 (145)
           0.1047 (158) -0.1134 (165) -0.1111 (170) -0.1112 (171) -0.1600 (175)
          -0.1599 (177)
 CRD 35=  -0.2093 (  1)  0.2609 (  4)  0.1747 ( 12) -0.1136 ( 13) -0.2190 ( 15)
           0.1401 ( 16) -0.2338 ( 17)  0.2271 ( 18)  0.1975 ( 22)  0.1435 ( 68)
           0.1423 ( 75) -0.1146 ( 81) -0.1067 ( 86) -0.1539 ( 89)  0.1289 (102)
           0.1144 (120)  0.1251 (123)  0.1109 (124) -0.1672 (129)  0.1183 (138)
          -0.2011 (148)  0.1190 (163)  0.1091 (165) -0.1057 (166) -0.1081 (176)
 CRD 36=   0.1593 (  1)  0.1115 (  2) -0.1621 (  5) -0.1506 (  6) -0.1621 (  7)
          -0.1143 ( 12) -0.1429 ( 13) -0.1231 ( 16)  0.1454 ( 17) -0.1162 ( 18)
          -0.1058 ( 21)  0.1462 ( 22) -0.1360 ( 23)  0.1742 ( 24)  0.1113 ( 71)
          -0.1712 ( 76)  0.1549 ( 85) -0.2321 ( 88) -0.1096 (103)  0.1129 (105)
           0.1149 (119) -0.1013 (121) -0.1415 (128)  0.1616 (145)  0.1028 (155)
          -0.1434 (161) -0.1087 (162)  0.1528 (165) -0.1441 (172) -0.1335 (175)
 CRD 37=   0.1033 (  2) -0.3083 (  3) -0.1105 (  4) -0.1824 ( 11)  0.3296 ( 14)
           0.1428 ( 16)  0.2153 ( 26)  0.2322 ( 30)  0.1473 ( 58) -0.1941 ( 67)
          -0.1843 ( 71)  0.1086 ( 76) -0.1465 ( 77) -0.1388 ( 95)  0.1313 (117)
          -0.1599 (120)  0.1622 (121) -0.1747 (145)  0.1618 (150)  0.2453 (154)
          -0.3143 (158)
 CRD 38=  -0.3371 (  2)  0.1123 (  3)  0.1102 (  5)  0.1102 (  7) -0.2318 ( 11)
           0.2162 ( 17)  0.1928 ( 23)  0.1317 ( 44)  0.1290 ( 50)  0.1114 ( 58)
           0.1417 ( 66)  0.1369 ( 71) -0.1099 ( 72) -0.1079 ( 73) -0.1054 ( 74)
          -0.2176 ( 78) -0.1581 ( 89)  0.1044 ( 94)  0.1798 (105) -0.1017 (111)
          -0.1114 (120)  0.1232 (128)  0.1000 (139)  0.2796 (145) -0.1624 (150)
           0.1144 (154) -0.1807 (158) -0.1262 (160)
 CRD 39=   0.1751 (  2) -0.1248 (  3)  0.1771 (  8)  0.1771 (  9) -0.1448 ( 11)
           0.1342 ( 14) -0.1043 ( 18) -0.1845 ( 24) -0.1251 ( 26) -0.1033 ( 39)
          -0.1256 ( 40) -0.1033 ( 43) -0.1523 ( 44) -0.1256 ( 46) -0.2021 ( 50)
           0.1511 ( 66) -0.1287 ( 72) -0.1395 ( 73)  0.1696 ( 74)  0.1583 ( 75)
           0.1101 ( 87)  0.1804 ( 88)  0.1481 ( 94) -0.1136 (111) -0.1081 (121)
          -0.1038 (129)  0.1224 (138) -0.1422 (139) -0.1315 (146)  0.1212 (149)
           0.1331 (150)  0.1372 (151)  0.1758 (152)  0.1531 (153) -0.1644 (159)
          -0.1225 (160) -0.1328 (161) -0.1240 (162)
 CRD 40=  -0.1224 ( 15)  0.1429 ( 16) -0.1170 ( 17)  0.1979 ( 18) -0.2007 ( 22)
           0.2158 ( 24) -0.1148 ( 30)  0.1037 ( 39)  0.1037 ( 43) -0.1133 ( 44)
           0.1507 ( 58)  0.1575 ( 67) -0.1334 ( 72) -0.2302 ( 87) -0.1635 ( 95)
           0.2201 ( 97) -0.1061 (100)  0.1503 (110) -0.2026 (117)  0.1250 (120)
          -0.1379 (123)  0.1225 (126)  0.1293 (127) -0.1891 (146) -0.1129 (150)
           0.1105 (153)  0.1611 (155)  0.1269 (156)  0.1312 (157) -0.1116 (165)
           0.1556 (167)
 CRD 41=   0.1218 (  5) -0.2623 (  6)  0.1218 (  7)  0.1009 (  8)  0.1009 (  9)
          -0.1671 ( 10)  0.1071 ( 14)  0.1312 ( 19) -0.2028 ( 22)  0.1613 ( 24)
           0.1792 ( 33)  0.1010 ( 60)  0.1528 ( 61)  0.1289 ( 62)  0.1357 ( 77)
          -0.1904 ( 86) -0.1004 ( 87)  0.1759 ( 89)  0.1186 ( 97) -0.1027 (103)
           0.1115 (110)  0.2042 (124) -0.1886 (126)  0.1155 (127) -0.1057 (128)
           0.1248 (129)  0.1190 (147)  0.1117 (148) -0.1007 (165)  0.1043 (167)
          -0.1169 (168) -0.1124 (177)
 CRD 42=  -0.1460 (  2) -0.1454 (  3)  0.1008 (  4)  0.1131 (  6)  0.3627 (  8)
           0.3627 (  9)  0.1625 ( 10) -0.1453 ( 11)  0.1041 ( 18) -0.1283 ( 23)
          -0.1127 ( 33) -0.1185 ( 39) -0.1019 ( 40) -0.1298 ( 42) -0.1185 ( 43)
          -0.1019 ( 46) -0.1058 ( 48) -0.1058 ( 52) -0.1298 ( 53)  0.1171 ( 57)
          -0.1247 ( 78)  0.1211 ( 83)  0.1191 ( 87)  0.1476 ( 89)  0.1185 (121)
          -0.1453 (124) -0.1037 (153)  0.1148 (159) -0.1022 (171) -0.1704 (175)
 CRD 43=   0.1425 (  3)  0.1974 (  5)  0.2166 (  6)  0.1974 (  7)  0.2114 ( 10)
          -0.1646 ( 13)  0.1966 ( 14) -0.1766 ( 16)  0.1367 ( 23) -0.1050 ( 33)
          -0.1046 ( 36)  0.1432 ( 57) -0.1144 ( 60) -0.1126 ( 62)  0.1310 ( 76)
           0.1936 ( 77)  0.1154 ( 95) -0.1091 (111) -0.1034 (124)  0.1785 (126)
          -0.1040 (151)  0.1447 (158)  0.1138 (159) -0.1669 (161) -0.1383 (162)
          -0.1299 (175)
 CRD 44=  -0.1551 (  1)  0.2213 (  3) -0.1405 (  4) -0.1595 ( 11)  0.1188 ( 13)
           0.1495 ( 22) -0.2392 ( 23)  0.1286 ( 40)  0.1286 ( 46) -0.1239 ( 51)
           0.2361 ( 76)  0.1129 ( 87) -0.1752 ( 88)  0.1695 ( 93) -0.1293 (103)
          -0.1477 (119)  0.1699 (123) -0.1289 (128)  0.1158 (129)  0.1536 (138)
          -0.1812 (146)  0.1007 (147)  0.1015 (148) -0.1628 (149) -0.1619 (151)
           0.1720 (152)  0.1168 (153)  0.1318 (165) -0.1670 (168)  0.1131 (173)
 CRD 45=   0.2286 (  1) -0.2107 (  4)  0.1132 ( 10) -0.2408 ( 15)  0.1622 ( 16)
           0.1162 ( 44) -0.1166 ( 50) -0.1090 ( 66)  0.1141 ( 71) -0.1253 ( 72)
           0.1171 ( 73)  0.1219 ( 74) -0.1054 ( 75)  0.1181 ( 91) -0.1817 ( 94)
          -0.1486 ( 97)  0.1574 (102)  0.1337 (105)  0.1309 (110)  0.1106 (119)
          -0.1300 (127) -0.1726 (138) -0.1620 (139) -0.1272 (140) -0.1066 (141)
          -0.1034 (142) -0.1124 (144) -0.1309 (146)  0.1185 (149) -0.1415 (150)
          -0.1481 (153) -0.1826 (154)  0.1158 (156)  0.1190 (157)  0.1368 (179)
 CRD 46=   0.1719 (  2) -0.2012 (  3)  0.1684 ( 11) -0.2022 ( 14)  0.2289 ( 17)
           0.1108 ( 18)  0.2263 ( 32) -0.1011 ( 51) -0.1057 ( 58) -0.1000 ( 59)
           0.1238 ( 72)  0.1002 ( 74) -0.2712 ( 78)  0.1798 ( 95)  0.1834 (105)
          -0.1340 (117) -0.1995 (120)  0.1229 (121) -0.1588 (139) -0.2535 (146)
           0.3117 (152) -0.2886 (153)  0.2704 (159)
 CRD 47=  -0.1409 (  3)  0.2107 ( 14) -0.1410 ( 16) -0.1312 ( 20)  0.2405 ( 21)
          -0.1180 ( 59) -0.1063 ( 76)  0.1813 ( 77) -0.1528 ( 84)  0.1793 ( 86)
          -0.1462 (100)  0.1375 (109)  0.1048 (110) -0.1377 (111) -0.1539 (112)
          -0.1216 (131) -0.2037 (134) -0.1095 (152) -0.1021 (153)  0.1076 (155)
           0.1386 (156)  0.1511 (159) -0.1349 (160) -0.1038 (161) -0.1493 (162)
          -0.1761 (170)  0.1153 (171)  0.1527 (175)  0.1273 (176) -0.1387 (177)
 CRD 48=   0.1589 (  6)  0.2067 ( 10)  0.1262 ( 12)  0.1349 ( 17) -0.2209 ( 18)
           0.1679 ( 24) -0.1194 ( 26)  0.1205 ( 30) -0.1009 ( 42) -0.1009 ( 53)
          -0.1188 ( 67)  0.1035 ( 71)  0.1185 ( 75)  0.1057 ( 89)  0.1164 ( 96)
           0.1190 (102) -0.1375 (103) -0.1405 (115)  0.1039 (117) -0.1282 (121)
           0.1184 (125)  0.1572 (127) -0.1233 (132) -0.1962 (140)  0.1795 (143)
           0.1024 (144)  0.1779 (146)  0.1840 (150) -0.1666 (154) -0.1154 (155)
          -0.1540 (159)  0.1187 (163)  0.1322 (167)
 CRD 49=  -0.1046 (  3)  0.1324 (  6) -0.1144 (  8) -0.1144 (  9) -0.1003 ( 10)
           0.1453 ( 19) -0.2156 ( 21)  0.1231 ( 25)  0.1231 ( 28) -0.1020 ( 36)
          -0.1053 ( 68)  0.1559 ( 83) -0.1696 ( 86) -0.2146 ( 99) -0.1672 (109)
           0.1289 (112) -0.1316 (130) -0.2569 (135)  0.1024 (142)  0.1047 (144)
           0.1744 (151)  0.1383 (157) -0.1100 (168) -0.2150 (171)  0.1041 (172)
           0.1192 (173) -0.1109 (175)  0.1852 (177)  0.1561 (178)
 CRD 50=   0.1190 (  1)  0.2636 (  5)  0.1063 (  6)  0.2636 (  7) -0.1417 (  8)
          -0.1417 (  9)  0.1258 ( 10) -0.1383 ( 11)  0.1358 ( 15)  0.1272 ( 25)
           0.1272 ( 28) -0.1047 ( 48) -0.1047 ( 52)  0.1623 ( 68) -0.1385 ( 96)
          -0.1003 ( 98)  0.1115 (102)  0.1396 (115)  0.1034 (135)  0.1346 (149)
          -0.1293 (150)  0.1427 (151) -0.1110 (152)  0.1313 (153)  0.1453 (154)
          -0.1519 (155) -0.1565 (156) -0.1586 (157) -0.1272 (166) -0.1120 (172)
 CRD 51=  -0.1148 ( 13)  0.2094 ( 19) -0.2323 ( 20)  0.1415 ( 61) -0.1309 ( 62)
           0.1052 ( 81)  0.1867 ( 83) -0.2192 ( 84)  0.2124 ( 98) -0.1268 (106)
           0.1268 (108) -0.1002 (112)  0.1288 (116)  0.1386 (122)  0.1322 (124)
           0.1282 (126) -0.1258 (130) -0.1560 (131) -0.1005 (133)  0.2176 (136)
           0.2257 (137) -0.1579 (157)  0.1756 (166) -0.2270 (170) -0.1892 (171)
           0.1449 (172)  0.1978 (173)
 CRD 52=   0.2140 (  5)  0.2140 (  7) -0.1081 ( 10) -0.1568 ( 12)  0.1012 ( 16)
          -0.1116 ( 66)  0.1083 ( 85)  0.1678 ( 93)  0.1667 ( 96) -0.1004 ( 98)
          -0.1575 (102)  0.1226 (103) -0.1066 (104) -0.1246 (113) -0.1488 (115)
           0.1348 (132)  0.1252 (135) -0.1448 (142)  0.1298 (144) -0.1734 (147)
          -0.1271 (149)  0.1985 (155)  0.2385 (160) -0.1128 (167) -0.1089 (172)
          -0.1216 (177)
 CRD 53=   0.1939 (  2) -0.1552 (  8) -0.1552 (  9) -0.1579 ( 11)  0.1387 ( 13)
          -0.1519 ( 27) -0.1519 ( 29)  0.1594 ( 45) -0.1828 ( 48)  0.1594 ( 49)
          -0.1828 ( 52)  0.1926 ( 55)  0.1926 ( 56)  0.1926 ( 64)  0.1926 ( 65)
          -0.1373 (101) -0.1809 (104) -0.1848 (106) -0.1584 (107)  0.1848 (108)
           0.1254 (109)  0.1153 (112) -0.1326 (114)  0.1849 (116) -0.1854 (118)
           0.2004 (122) -0.1069 (123)  0.1173 (168) -0.1066 (169)
 CRD 54=   0.1354 (  6) -0.1261 ( 10) -0.1426 ( 12)  0.1223 ( 38)  0.1223 ( 41)
           0.1097 ( 90)  0.2188 ( 91)  0.1121 ( 92) -0.1460 ( 93) -0.1558 (103)
          -0.1161 (110) -0.1300 (111) -0.1670 (113) -0.1161 (119)  0.1676 (123)
          -0.1773 (125)  0.2614 (127)  0.1578 (128) -0.1237 (129)  0.1068 (133)
           0.1065 (140)  0.1455 (147)  0.1531 (149)  0.1575 (155)  0.1435 (160)
          -0.1729 (163) -0.1761 (164) -0.1784 (174) -0.3489 (179)

 THE DETERMINANT OF THE G MATRIX IS 10**(    -7)


                     --------------------
                     INTERNAL COORDINATES
                     --------------------

                 - - ATOMS - -         COORDINATE      COORDINATE
 NO.   TYPE    I  J  K  L  M  N        (BOHR,RAD)       (ANG,DEG)
 ----------------------------------------------------------------
   1 STRETCH   1  6                     2.0600173       1.0901143
   2 STRETCH   1  2                     2.9040062       1.5367340
   3 STRETCH   1  5                     2.9297763       1.5503710
   4 STRETCH   1  7                     2.0545161       1.0872032
   5 STRETCH   2  3                     2.5765504       1.3634519
   6 STRETCH   2 12                     3.7794520       2.0000000
   7 STRETCH   2  3                     2.5765504       1.3634519
   8 STRETCH   2 17                     2.8803711       1.5242268
   9 STRETCH   2 17                     2.8803711       1.5242268
  10 STRETCH   3 12                     3.6374495       1.9248555
  11 STRETCH   3  4                     2.8918403       1.5302961
  12 STRETCH   3 13                     3.7794520       2.0000000
  13 STRETCH   3 16                     2.0476144       1.0835509
  14 STRETCH   4  5                     2.9310471       1.5510434
  15 STRETCH   4  9                     2.0600074       1.0901090
  16 STRETCH   4  8                     2.0539481       1.0869026
  17 STRETCH   5 11                     2.0531126       1.0864605
  18 STRETCH   5 10                     2.0524423       1.0861057
  19 STRETCH  12 15                     2.1788809       1.1530142
  20 STRETCH  12 14                     2.1799329       1.1535709
  21 STRETCH  12 13                     2.1794007       1.1532892
  22 STRETCH  17 20                     2.0529996       1.0864007
  23 STRETCH  17 19                     2.0500498       1.0848397
  24 STRETCH  17 18                     2.0571372       1.0885902
  25 BEND      1  2 17                  2.0954105     120.0581804
  26 BEND      1  5 11                  1.9521110     111.8477240
  27 BEND      1  2  3                  1.9257775     110.3389233
  28 BEND      1  2 17                  2.0954105     120.0581804
  29 BEND      1  2  3                  1.9257775     110.3389233
  30 BEND      1  5 10                  1.9194823     109.9782348
  31 BEND      1  2 12                  1.9177137     109.8769021
  32 BEND      1  5  4                  1.8375504     105.2838808
  33 BEND      2 12 13                  2.0293485     116.2731038
  34 BEND      2  3 12                  1.2682198      72.6636392
  35 BEND      2 12  3                  0.7085802      40.5986553
  36 BEND      2 12 15                  1.7309911      99.1784830
  37 BEND      2 12 14                  1.6312803      93.4654746
  38 BEND      2  3 13                  1.8519222     106.1073239
  39 BEND      2 17 20                  1.9335694     110.7853669
  40 BEND      2 17 19                  1.9382543     111.0537936
  41 BEND      2  3 13                  1.8519222     106.1073239
  42 BEND      2 17 18                  1.8997552     108.8479525
  43 BEND      2 17 20                  1.9335694     110.7853669
  44 BEND      2  1  7                  1.9625553     112.4461386
  45 BEND      2  3  4                  1.9501071     111.7329047
  46 BEND      2 17 19                  1.9382543     111.0537936
  47 BEND      2  3 12                  1.2682198      72.6636392
  48 BEND      2  3 16                  2.1622368     123.8870439
  49 BEND      2  3  4                  1.9501071     111.7329047
  50 BEND      2  1  6                  1.8877296     108.1589370
  51 BEND      2  1  5                  1.8234021     104.4732470
  52 BEND      2  3 16                  2.1622368     123.8870439
  53 BEND      2 17 18                  1.8997552     108.8479525
  54 BEND      3  2 12                  1.1647927      66.7377055
  55 BEND      3  2 17                  2.2174713     127.0517473
  56 BEND      3  2 17                  2.2174713     127.0517473
  57 BEND      3 13 12                  1.2108170      69.3747012
  58 BEND      3  4  9                  1.8903103     108.3067999
  59 BEND      3  4  5                  1.8093714     103.6693452
  60 BEND      3 12 13                  1.3354810      76.5174245
  61 BEND      3 12 14                  2.0597352     118.0141335
  62 BEND      3 12 15                  1.9171581     109.8450666
  63 BEND      3  2 12                  1.1647927      66.7377055
  64 BEND      3  2 17                  2.2174713     127.0517473
  65 BEND      3  2 17                  2.2174713     127.0517473
  66 BEND      3  4  8                  1.9677417     112.7432937
  67 BEND      4  5 11                  1.9512348     111.7975163
  68 BEND      4  3 16                  2.1175578     121.3271223
  69 BEND      4  3 13                  1.6149587      92.5303166
  70 BEND      4  3 12                  1.9377259     111.0235159
  71 BEND      4  5 10                  1.9174334     109.8608387
  72 BEND      5  4  8                  1.9682142     112.7703641
  73 BEND      5  4  9                  1.9407773     111.1983505
  74 BEND      5  1  7                  1.9671548     112.7096653
  75 BEND      5  1  6                  1.9404182     111.1777754
  76 BEND      6  1  7                  1.8817452     107.8160567
  77 BEND      8  4  9                  1.8862626     108.0748847
  78 BEND     10  5 11                  1.8860521     108.0628231
  79 BEND     12  2 17                  1.8738757     107.3651687
  80 BEND     12  2 17                  1.8738757     107.3651687
  81 BEND     12  3 16                  1.7848382     102.2636980
  82 BEND     12  3 13                  0.5952947      34.1078744
  83 BEND     13 12 14                  1.9755075     113.1882449
  84 BEND     13 12 15                  1.9888407     113.9521755
  85 BEND     13  3 16                  1.5565737      89.1851009
  86 BEND     14 12 15                  2.0647993     118.3042831
  87 BEND     18 17 19                  1.9010711     108.9233513
  88 BEND     18 17 20                  1.8892581     108.2465129
  89 BEND     19 17 20                  1.9010282     108.9208940
  90 TORSION   1  2  3 13              -1.6897455     -96.8152851
  91 TORSION   1  2  3  4               0.0463802       2.6573908
  92 TORSION   1  2  3 12              -1.8083663    -103.6117541
  93 TORSION   1  2 17 18              -0.9797954     -56.1381417
  94 TORSION   1  5  4  8               2.4956535     142.9904103
  95 TORSION   1  5  4  9              -1.6655441     -95.4286489
  96 TORSION   1  5  4  3               0.3620185      20.7421338
  97 TORSION   1  2 17 19              -3.0725682    -176.0451878
  98 TORSION   1  2 12 13               1.5985519      91.5902775
  99 TORSION   1  2 12 14              -0.4613258     -26.4320218
 100 TORSION   1  2 12 15              -2.5453233    -145.8362800
 101 TORSION   1  2 12  3               1.8202490     104.2925866
 102 TORSION   1  2  3 16               2.8455993     163.0408311
 103 TORSION   1  2 17 20               1.0955919      62.7727896
 104 TORSION   2 12  3 16               2.1292513     121.9971124
 105 TORSION   2  1  5 10               1.7247514      98.8209785
 106 TORSION   2 12  3 13              -2.9374191    -168.3017183
 107 TORSION   2 12  3  4              -1.8708695    -107.1929250
 108 TORSION   2  3 12 13               2.9374191     168.3017183
 109 TORSION   2  3 12 14               1.0291592      58.9664809
 110 TORSION   2  3  4  8              -2.3957618    -137.2670380
 111 TORSION   2  3  4  9               1.8010429     103.1921585
 112 TORSION   2  3 12 15              -1.4095879     -80.7634381
 113 TORSION   2  3  4  5              -0.2618128     -15.0007694
 114 TORSION   2 12 13  3               0.1476834       8.4616361
 115 TORSION   2  1  5  4              -0.3399727     -19.4790005
 116 TORSION   2  3 13 12              -0.2028436     -11.6220806
 117 TORSION   2  1  5 11              -2.4626535    -141.0996509
 118 TORSION   3 12  2 17              -2.1564459    -123.5552480
 119 TORSION   3  2  1  7               2.3285395     133.4154885
 120 TORSION   3  4  5 10              -1.7040823     -97.6367244
 121 TORSION   3  4  5 11               2.4852689     142.3954167
 122 TORSION   3  2 12 13              -0.2216971     -12.7023091
 123 TORSION   3  2 17 18               1.8138609     103.9265741
 124 TORSION   3 13 12 14               2.0072700     115.0080966
 125 TORSION   3  2  1  5               0.1896441      10.8658044
 126 TORSION   3 13 12 15              -1.8498929    -105.9910537
 127 TORSION   3  2 17 19              -0.2789119     -15.9804720
 128 TORSION   3  2 17 20              -2.3939371    -137.1624946
 129 TORSION   3  2  1  6              -1.8787547    -107.6447176
 130 TORSION   3  2 12 14              -2.2815748    -130.7246084
 131 TORSION   3  2 12 15               1.9176130     109.8711335
 132 TORSION   4  3  2 17              -2.7750425    -158.9982260
 133 TORSION   4  3  2 12               1.8547465     106.2691450
 134 TORSION   4  3 12 15               3.0027279     172.0436369
 135 TORSION   4  3 12 14              -0.8417102     -48.2264441
 136 TORSION   4  3 12 13               1.0665496      61.1087933
 137 TORSION   4  3 13 12              -2.1835724    -125.1094832
 138 TORSION   4  5  1  7              -2.4758620    -141.8564425
 139 TORSION   4  5  1  6               1.6922029      96.9560858
 140 TORSION   5  4  3 16              -3.0710589    -175.9587149
 141 TORSION   5  4  3 13               1.6310983      93.4550508
 142 TORSION   5  4  3 12               1.1173560      64.0197837
 143 TORSION   5  1  2 17               3.0367906     173.9952835
 144 TORSION   5  1  2 12              -1.0618885     -60.8417309
 145 TORSION   6  1  5 10              -2.5262582    -144.7439352
 146 TORSION   6  1  5 11              -0.4304779     -24.6645646
 147 TORSION   6  1  2 17               0.9683918      55.4847615
 148 TORSION   6  1  2 12              -3.1302873    -179.3522529
 149 TORSION   7  1  2 17              -1.1074992     -63.4550324
 150 TORSION   7  1  5 11               1.6846425      96.5229072
 151 TORSION   7  1  2 12               1.0770070      61.7079532
 152 TORSION   7  1  5 10              -0.4111378     -23.5564634
 153 TORSION   8  4  5 10               0.4295526      24.6115521
 154 TORSION   8  4  5 11              -1.6642815     -95.3563068
 155 TORSION   8  4  3 16               1.0781774      61.7750166
 156 TORSION   8  4  3 13              -0.5028506     -28.8112177
 157 TORSION   8  4  3 12              -1.0165929     -58.2464848
 158 TORSION   9  4  5 10               2.5515403     146.1924929
 159 TORSION   9  4  5 11               0.4577062      26.2246340
 160 TORSION   9  4  3 16              -1.0082032     -57.7657869
 161 TORSION   9  4  3 13              -2.5892312    -148.3520212
 162 TORSION   9  4  3 12              -3.1029735    -177.7872884
 163 TORSION  12  2  3 16              -1.6292197     -93.3474147
 164 TORSION  12  3  2 17               1.6533963      94.7326291
 165 TORSION  12  2 17 18               3.0983635     177.5231519
 166 TORSION  12 13  3 16               1.9821353     113.5679887
 167 TORSION  12  2 17 19               1.0055907      57.6161058
 168 TORSION  12  2 17 20              -1.1094345     -63.5659169
 169 TORSION  12  2  3 13               0.1186208       6.7964690
 170 TORSION  13  3 12 15               1.9361783     110.9348436
 171 TORSION  13  3 12 14              -1.9082599    -109.3352374
 172 TORSION  13 12  3 16              -1.2165149     -69.7011694
 173 TORSION  13 12  2 17              -2.3781430    -136.2575570
 174 TORSION  13  3  2 17               1.7720170     101.5290981
 175 TORSION  14 12  3 16              -3.1247748    -179.0364068
 176 TORSION  14 12  2 17               1.8451646     105.7201437
 177 TORSION  15 12  3 16               0.7196634      41.2336742
 178 TORSION  15 12  2 17              -0.2388329     -13.6841145
 179 TORSION  16  3  2 17               0.0241766       1.3852144

     ------------------------------------------
     THE POINT GROUP IS C1 , NAXIS= 0, ORDER= 1
     ------------------------------------------

     DIMENSIONS OF THE SYMMETRY SUBSPACES ARE
 A   =   48

 ..... DONE SETTING UP THE RUN .....
 STEP CPU TIME =     0.05 TOTAL CPU TIME =          0.0 (      0.0 MIN)
 TOTAL WALL CLOCK TIME=          0.1 SECONDS, CPU UTILIZATION IS    83.33%


          -----------------------------
          STATIONARY POINT LOCATION RUN
          -----------------------------

 OBTAINING INITIAL HESSIAN, HESS=CALC    

     ---------------------------------
     HESSIAN MATRIX CONTROL PARAMETERS
     ---------------------------------
     METHOD=ANALYTIC   NVIB  =       2   VIBSIZ= 0.01000
     RDHESS=       F   PURIFY=       F   PRTIFC=       F
     VIBANL=       F   DECOMP=       F   PROJCT=       F
     SCLFAC= 1.00000   PRTSCN=       F   NPRT  =       0
     PULCOR=       F   NPUN  =       0   REDOVB=       T
     HSSTYP=GENERAL 
 Old integral subroutine is used

     ------------------------------
     CPHF RESPONSE SOLUTION OPTIONS
     ------------------------------
     POLAR  =       F     NWORD  =       0
     CPHF   =AO      

          ********************
          1 ELECTRON INTEGRALS
          ********************
 ...... END OF ONE-ELECTRON INTEGRALS ......
 STEP CPU TIME =     0.01 TOTAL CPU TIME =          0.1 (      0.0 MIN)
 TOTAL WALL CLOCK TIME=          0.1 SECONDS, CPU UTILIZATION IS    75.00%

          -------------
          GUESS OPTIONS
          -------------
          GUESS =HUCKEL            NORB  =       0          NORDER=       0
          MIX   =       F          PRTMO =       F          PUNMO =       F
          TOLZ  = 1.0E-08          TOLE  = 1.0E-05
          SYMDEN=       F          PURIFY=       F

 INITIAL GUESS ORBITALS GENERATED BY HUCKEL   ROUTINE.
 HUCKEL GUESS REQUIRES     39252 WORDS.

 SYMMETRIES FOR INITIAL GUESS ORBITALS FOLLOW.   BOTH SET(S).
    27 ORBITALS ARE OCCUPIED (    7 CORE ORBITALS).
     8=A        9=A       10=A       11=A       12=A       13=A       14=A   
    15=A       16=A       17=A       18=A       19=A       20=A       21=A   
    22=A       23=A       24=A       25=A       26=A       27=A       28=A   
    29=A       30=A       31=A       32=A       33=A       34=A       35=A   
    36=A       37=A   
 ...... END OF INITIAL ORBITAL SELECTION ......
 STEP CPU TIME =     0.01 TOTAL CPU TIME =          0.1 (      0.0 MIN)
 TOTAL WALL CLOCK TIME=          0.1 SECONDS, CPU UTILIZATION IS    77.78%

                    ----------------------
                    AO INTEGRAL TECHNOLOGY
                    ----------------------
     S,P,L SHELL ROTATED AXIS INTEGRALS, REPROGRAMMED BY
        KAZUYA ISHIMURA (IMS) AND JOSE SIERRA (SYNSTAR).
     S,P,D,L SHELL ROTATED AXIS INTEGRALS PROGRAMMED BY
        KAZUYA ISHIMURA (INSTITUTE FOR MOLECULAR SCIENCE).
     S,P,D,F,G SHELL TO TOTAL QUARTET ANGULAR MOMENTUM SUM 5,
        ERIC PROGRAM BY GRAHAM FLETCHER (ELORET AND NASA ADVANCED
        SUPERCOMPUTING DIVISION, AMES RESEARCH CENTER).
     S,P,D,F,G,L SHELL GENERAL RYS QUADRATURE PROGRAMMED BY
        MICHEL DUPUIS (PACIFIC NORTHWEST NATIONAL LABORATORY).

          --------------------
          2 ELECTRON INTEGRALS
          --------------------

 THE -PK- OPTION IS OFF, THE INTEGRALS ARE NOT IN SUPERMATRIX FORM.
 STORING   15000 INTEGRALS/RECORD ON DISK, USING 12 BYTES/INTEGRAL.
 TWO ELECTRON INTEGRAL EVALUATION REQUIRES   89734 WORDS OF MEMORY.
 SCHWARZ INEQUALITY OVERHEAD:      1165 INTEGRALS, T=        0.00
 II,JST,KST,LST =  1  1  1  1 NREC =         1 INTLOC =    1
 II,JST,KST,LST =  2  1  1  1 NREC =         1 INTLOC =    2
 II,JST,KST,LST =  3  1  1  1 NREC =         1 INTLOC =   34
 II,JST,KST,LST =  4  1  1  1 NREC =         1 INTLOC =  140
 II,JST,KST,LST =  5  1  1  1 NREC =         1 INTLOC = 1358
 II,JST,KST,LST =  6  1  1  1 NREC =         1 INTLOC = 1951
 II,JST,KST,LST =  7  1  1  1 NREC =         1 INTLOC = 6837
 II,JST,KST,LST =  8  1  1  1 NREC =         1 INTLOC = 8535
 II,JST,KST,LST =  9  1  1  1 NREC =         2 INTLOC = 5989
 II,JST,KST,LST = 10  1  1  1 NREC =         2 INTLOC = 9820
 II,JST,KST,LST = 11  1  1  1 NREC =         4 INTLOC = 5304
 II,JST,KST,LST = 12  1  1  1 NREC =         4 INTLOC =13913
 II,JST,KST,LST = 13  1  1  1 NREC =         5 INTLOC = 8568
 II,JST,KST,LST = 14  1  1  1 NREC =         6 INTLOC = 4342
 II,JST,KST,LST = 15  1  1  1 NREC =         7 INTLOC = 1334
 II,JST,KST,LST = 16  1  1  1 NREC =         7 INTLOC =14628
 II,JST,KST,LST = 17  1  1  1 NREC =         8 INTLOC =14306
 II,JST,KST,LST = 18  1  1  1 NREC =         9 INTLOC =12769
 II,JST,KST,LST = 19  1  1  1 NREC =        15 INTLOC = 3291
 II,JST,KST,LST = 20  1  1  1 NREC =        16 INTLOC =13132
 II,JST,KST,LST = 21  1  1  1 NREC =        18 INTLOC =10076
 II,JST,KST,LST = 22  1  1  1 NREC =        20 INTLOC = 9108
 II,JST,KST,LST = 23  1  1  1 NREC =        22 INTLOC =10592
 II,JST,KST,LST = 24  1  1  1 NREC =        24 INTLOC = 7221
 II,JST,KST,LST = 25  1  1  1 NREC =        35 INTLOC = 1348
 II,JST,KST,LST = 26  1  1  1 NREC =        38 INTLOC = 3280
 II,JST,KST,LST = 27  1  1  1 NREC =        41 INTLOC = 8179
 SCHWARZ INEQUALITY TEST SKIPPED        7543 INTEGRAL BLOCKS.
 TOTAL NUMBER OF NONZERO TWO-ELECTRON INTEGRALS =              661265
         45 INTEGRAL RECORDS WERE STORED ON DISK FILE  8.
  ...... END OF TWO-ELECTRON INTEGRALS .....
 STEP CPU TIME =     0.24 TOTAL CPU TIME =          0.3 (      0.0 MIN)
 TOTAL WALL CLOCK TIME=          0.3 SECONDS, CPU UTILIZATION IS    93.94%

          --------------------------
                 RHF SCF CALCULATION
          --------------------------

     NUCLEAR ENERGY =       309.6479207256
     MAXIT =   30     NPUNCH=    2
     EXTRAP=T  DAMP=F  SHIFT=F  RSTRCT=F  DIIS=F  DEM=F  SOSCF=T
     DENSITY MATRIX CONV=  1.00E-05
     SOSCF WILL OPTIMIZE     567 ORBITAL ROTATIONS, SOGTOL=   0.250
     MEMORY REQUIRED FOR RHF ITERS=     49068 WORDS.

 ITER EX DEM     TOTAL ENERGY        E CHANGE  DENSITY CHANGE     ORB. GRAD
   1  0  0     -255.9823143679  -255.9823143679   0.300134776   0.000000000
          ---------------START SECOND ORDER SCF---------------
   2  1  0     -256.3258208263    -0.3435064584   0.054101759   0.029678029
   3  2  0     -256.3388576190    -0.0130367927   0.030936185   0.005986662
   4  3  0     -256.3399273439    -0.0010697250   0.003621790   0.000968554
   5  4  0     -256.3399512441    -0.0000239002   0.001233578   0.000441513
   6  5  0     -256.3399544263    -0.0000031822   0.000274795   0.000070189
   7  6  0     -256.3399546061    -0.0000001798   0.000050576   0.000016794
   8  7  0     -256.3399546172    -0.0000000111   0.000011574   0.000003128
   9  8  0     -256.3399546178    -0.0000000005   0.000004449   0.000001034
  10  9  0     -256.3399546178    -0.0000000001   0.000001358   0.000000285

          -----------------
          DENSITY CONVERGED
          -----------------
     TIME TO FORM FOCK OPERATORS=       0.1 SECONDS (       0.0 SEC/ITER)
     TIME TO SOLVE SCF EQUATIONS=       0.0 SECONDS (       0.0 SEC/ITER)

 FINAL RHF ENERGY IS     -256.3399546178 AFTER  10 ITERATIONS

          ------------
          EIGENVECTORS
          ------------

                      1          2          3          4          5
                  -11.0932   -11.0913   -11.0694   -11.0684   -11.0664
                     A          A          A          A          A   
    1  C  1  S   -0.005000  -0.000504  -0.012247  -0.008127   0.991695
    2  C  1  S   -0.005556   0.001135  -0.000316  -0.000215   0.037319
    3  C  1  X    0.001621  -0.000453   0.000049  -0.000001  -0.000152
    4  C  1  Y   -0.003316   0.000551  -0.000054   0.000005   0.000016
    5  C  1  Z    0.001712  -0.000295   0.000177  -0.000019  -0.000356
    6  C  2  S    0.973859  -0.189491   0.001337   0.005953   0.005841
    7  C  2  S    0.033833  -0.013809   0.000259  -0.005542  -0.005605
    8  C  2  X    0.001093  -0.003518   0.000031   0.004053  -0.001711
    9  C  2  Y    0.000877  -0.003095  -0.000039   0.000231   0.003501
   10  C  2  Z    0.000222   0.001507   0.000052   0.001739  -0.001755
   11  C  3  S    0.189924   0.973728   0.006535   0.000240   0.001590
   12  C  3  S    0.000072   0.037212  -0.005593   0.000092   0.000123
   13  C  3  X    0.002690  -0.002136  -0.004000  -0.000128  -0.000064
   14  C  3  Y    0.003080  -0.001981   0.001360   0.000102   0.000038
   15  C  3  Z   -0.000118   0.001024  -0.000931  -0.000132  -0.000004
   16  C  4  S   -0.002409  -0.005238   0.991787   0.001598   0.012085
   17  C  4  S   -0.001011  -0.005598   0.037322   0.000054   0.000628
   18  C  4  X    0.000789   0.003707  -0.000253   0.000017   0.000104
   19  C  4  Y   -0.000112  -0.001285   0.000039   0.000009  -0.000004
   20  C  4  Z    0.000157   0.000913  -0.000373  -0.000013   0.000152
   21  C  5  S   -0.001091  -0.000896  -0.012170  -0.000447  -0.016553
   22  C  5  S    0.000148   0.000067  -0.005937  -0.000040  -0.006247
   23  C  5  X    0.000045   0.000169  -0.000829   0.000027   0.003840
   24  C  5  Y   -0.000154  -0.000028  -0.003303  -0.000045   0.001224
   25  C  5  Z   -0.000008  -0.000042   0.002373   0.000012   0.000860
   26  H  6  S   -0.000071   0.000017   0.000102   0.000056  -0.007027
   27  H  7  S   -0.000011  -0.000037  -0.000007   0.000058  -0.006944
   28  H  8  S   -0.000039   0.000064  -0.006930  -0.000012  -0.000179
   29  H  9  S   -0.000008  -0.000055  -0.007017  -0.000012  -0.000073
   30  H 10  S    0.000037   0.000044   0.000159   0.000005   0.000200
   31  H 11  S   -0.000087  -0.000068   0.000203  -0.000008   0.000237
   32  B 12  S    0.000482   0.000319   0.000022   0.000019   0.000012
   33  B 12  S   -0.003466  -0.002466  -0.000014   0.000015   0.000048
   34  B 12  X    0.000282  -0.001862  -0.000113   0.000109  -0.000083
   35  B 12  Y    0.002487   0.000098   0.000095   0.000066   0.000047
   36  B 12  Z    0.001852   0.002273  -0.000032   0.000044   0.000038
   37  H 13  S   -0.000070  -0.000161  -0.000059  -0.000050   0.000022
   38  H 14  S    0.000388  -0.000033   0.000047   0.000042  -0.000170
   39  H 15  S    0.000438   0.000153  -0.000079  -0.000109  -0.000053
   40  H 16  S   -0.001152  -0.006505   0.000055  -0.000071  -0.000070
   41  C 17  S   -0.004990   0.000731  -0.001708   0.991893   0.008094
   42  C 17  S   -0.005417   0.001274  -0.000099   0.037881   0.000432
   43  C 17  X   -0.003686   0.000780  -0.000027  -0.000003   0.000027
   44  C 17  Y   -0.000341   0.000136  -0.000028  -0.000140  -0.000023
   45  C 17  Z   -0.001383   0.000286  -0.000014  -0.000088   0.000008
   46  H 18  S   -0.000073   0.000024   0.000010  -0.007004  -0.000057
   47  H 19  S    0.000054  -0.000122  -0.000010  -0.006963  -0.000127
   48  H 20  S   -0.000050  -0.000019   0.000012  -0.006962  -0.000074

                      6          7          8          9         10
                  -11.0570    -7.3038    -1.1287    -0.9941    -0.9507
                     A          A          A          A          A   
    1  C  1  S    0.017402   0.000033  -0.092720   0.028543  -0.147506
    2  C  1  S   -0.004964   0.000056   0.241255  -0.077121   0.422816
    3  C  1  X   -0.003915  -0.000044   0.009332  -0.079199   0.014495
    4  C  1  Y   -0.001127  -0.000134   0.052578   0.013080  -0.013214
    5  C  1  Z   -0.000923  -0.000099  -0.020962  -0.027472   0.006343
    6  C  2  S    0.001081   0.000507  -0.137000  -0.102860  -0.006011
    7  C  2  S    0.000084  -0.003080   0.352002   0.286273   0.021610
    8  C  2  X   -0.000140   0.000590   0.071707  -0.071931  -0.066887
    9  C  2  Y   -0.000010  -0.001765   0.029088   0.036439  -0.148692
   10  C  2  Z   -0.000074  -0.002141   0.000093  -0.044980   0.043075
   11  C  3  S    0.001274   0.000491  -0.129263  -0.023759   0.132251
   12  C  3  S    0.000093  -0.003429   0.333169   0.067556  -0.376444
   13  C  3  X   -0.000009   0.001279  -0.029410  -0.115335  -0.016924
   14  C  3  Y    0.000144  -0.001297  -0.077729  -0.012502   0.001034
   15  C  3  Z   -0.000141  -0.002492   0.037726  -0.009921  -0.005689
   16  C  4  S    0.013373   0.000049  -0.089681   0.105110   0.081407
   17  C  4  S   -0.005101  -0.000030   0.232914  -0.293293  -0.233807
   18  C  4  X    0.000609   0.000139  -0.054592  -0.001928   0.041474
   19  C  4  Y    0.003335  -0.000013  -0.013887   0.042969  -0.065539
   20  C  4  Z   -0.002437  -0.000204   0.003800  -0.026798   0.044272
   21  C  5  S    0.991763   0.000033  -0.079543   0.119008  -0.080127
   22  C  5  S    0.037013   0.000002   0.204936  -0.330942   0.228330
   23  C  5  X    0.000093   0.000196  -0.032569  -0.002547  -0.062433
   24  C  5  Y    0.000011  -0.000226   0.022627  -0.027627  -0.065023
   25  C  5  Z    0.000216  -0.000047  -0.028493   0.024120   0.017146
   26  H  6  S   -0.000036  -0.000116   0.045781  -0.016197   0.121894
   27  H  7  S    0.000008  -0.000044   0.041416  -0.015305   0.119238
   28  H  8  S    0.000036   0.000002   0.039429  -0.071201  -0.065699
   29  H  9  S   -0.000009  -0.000131   0.043746  -0.073901  -0.065446
   30  H 10  S   -0.007013  -0.000210   0.037487  -0.079562   0.060369
   31  H 11  S   -0.006991  -0.000100   0.035241  -0.083088   0.066231
   32  B 12  S    0.000020   0.989878  -0.025852  -0.015858   0.022281
   33  B 12  S   -0.000093   0.042462   0.037387   0.026527  -0.037669
   34  B 12  X   -0.000130   0.001036   0.007443  -0.005358  -0.015806
   35  B 12  Y    0.000108  -0.000486  -0.012467  -0.009323  -0.000919
   36  B 12  Z   -0.000022  -0.001321  -0.015783  -0.013056   0.020072
   37  H 13  S    0.000061  -0.007217   0.016107   0.003637  -0.029278
   38  H 14  S    0.000056  -0.007086   0.013379   0.007089  -0.002808
   39  H 15  S   -0.000050  -0.007119   0.010426   0.014561  -0.010307
   40  H 16  S   -0.000128  -0.000265   0.057744   0.023690  -0.110510
   41  C 17  S    0.000575   0.000041  -0.050078  -0.137366  -0.050461
   42  C 17  S   -0.000062   0.000125   0.134221   0.382726   0.142820
   43  C 17  X   -0.000062  -0.000019   0.039802   0.041699   0.000601
   44  C 17  Y    0.000030  -0.000276   0.001934   0.003591  -0.019554
   45  C 17  Z   -0.000035  -0.000156   0.014677   0.012832   0.006856
   46  H 18  S   -0.000007  -0.000156   0.025209   0.095311   0.046037
   47  H 19  S   -0.000012  -0.000104   0.024964   0.095456   0.028292
   48  H 20  S   -0.000008  -0.000200   0.023287   0.091028   0.044223

                     11         12         13         14         15
                   -0.8932    -0.7806    -0.7052    -0.6683    -0.6305
                     A          A          A          A          A   
    1  C  1  S    0.078767   0.084260   0.055617  -0.008454   0.008309
    2  C  1  S   -0.230676  -0.262235  -0.179011   0.027775  -0.027108
    3  C  1  X    0.042697   0.135585  -0.036880  -0.101778  -0.120768
    4  C  1  Y   -0.016446   0.056424   0.210095   0.034360  -0.120309
    5  C  1  Z    0.017993   0.056690  -0.090719   0.157428  -0.036628
    6  C  2  S    0.056699  -0.013319  -0.110895   0.008911  -0.067486
    7  C  2  S   -0.165381   0.035068   0.362595  -0.024297   0.240203
    8  C  2  X   -0.166166   0.017428   0.042726  -0.091784  -0.235341
    9  C  2  Y   -0.019011   0.175708  -0.042546   0.017902   0.020086
   10  C  2  Z   -0.053659  -0.038878   0.030437   0.190277  -0.084667
   11  C  3  S    0.055444  -0.029915   0.087020   0.037787   0.033388
   12  C  3  S   -0.156604   0.087899  -0.292739  -0.120863  -0.113305
   13  C  3  X    0.106803  -0.176066  -0.062475   0.014754  -0.178451
   14  C  3  Y    0.037132   0.009679  -0.288656   0.101971   0.132779
[...]
 18   H            X -0.00762117 -0.05199649  0.00046324  0.00158891  0.00029466
                   Y  0.00204772 -0.05135105 -0.00010312 -0.00040616  0.00042431
                   Z -0.00058576  0.03431955  0.00004642  0.00022056  0.00072899
 19   H            X -0.00453433  0.08907180 -0.00039578 -0.00028458 -0.00027011
                   Y -0.00395573  0.05345879  0.00034201  0.00193294  0.00205505
                   Z -0.00717697  0.02995031 -0.00105762 -0.00130404 -0.00124897
 20   H            X -0.00041259 -0.05843719 -0.00016113 -0.00094667 -0.00137122
                   Y -0.00540505 -0.06474120 -0.00050610 -0.00062087 -0.00076895
                   Z -0.00252763 -0.04415593  0.00028094  0.00196086  0.00117081

 TRANS. SAYVETZ    X -0.00000007 -0.00000071  0.00000011  0.00000001  0.00000002
                   Y  0.00000002  0.00000061 -0.00000005  0.00000019  0.00000001
                   Z  0.00000003 -0.00000030  0.00000033  0.00000008  0.00000005
               TOTAL  0.00000008  0.00000098  0.00000035  0.00000020  0.00000006

   ROT. SAYVETZ    X  0.00001874  0.00025260 -0.00080674  0.00050080  0.00015518
                   Y  0.00002682  0.00005266  0.00123790 -0.00014293 -0.00016132
                   Z -0.00006398 -0.00093566  0.00159432 -0.00054810 -0.00011568
               TOTAL  0.00007186  0.00097059  0.00217373  0.00075607  0.00025196

                           51          52          53          54          55
       FREQUENCY:      3569.78     3607.40     3608.54     3634.16     3724.42  
        SYMMETRY:         A           A           A           A           A   
    REDUCED MASS:      1.03938     1.06698     1.06727     1.06859     1.10966
    IR INTENSITY:      0.00438     0.01530     0.03106     0.01753     0.00120

  1   C            X  0.00040730 -0.02756933 -0.00531333  0.00519337  0.02989184
                   Y  0.00063239 -0.06342439 -0.01319549  0.00769452 -0.02004588
                   Z  0.00016348  0.00091193  0.00037542  0.00200567 -0.08219992
  2   C            X  0.00246811 -0.00047933 -0.00053759  0.00059139  0.00003080
                   Y -0.00005212  0.00127620  0.00038882 -0.00007421 -0.00042424
                   Z  0.00085786 -0.00091918 -0.00031558  0.00027306  0.00054704
  3   C            X  0.00032894  0.00037908 -0.00154581  0.00001858  0.00012011
                   Y  0.00026203  0.00047039 -0.00181059  0.00055572 -0.00056258
                   Z -0.00002639 -0.00009844  0.00111637 -0.00045284  0.00019311
  4   C            X  0.00023126 -0.01246722  0.05932800 -0.00630868  0.00089462
                   Y  0.00009755 -0.00473344  0.02080695 -0.00350451  0.00942030
                   Z -0.00012519  0.00635168 -0.02884818  0.00604412  0.01251819
  5   C            X  0.00006120 -0.00174798 -0.00718731 -0.04649937 -0.00294565
                   Y -0.00009255  0.00519895  0.00350638  0.03344758  0.00376866
                   Z  0.00005934 -0.00290700 -0.00287273 -0.04138435  0.00467442
  6   H            X  0.00000689  0.02304453  0.00495527 -0.00045857  0.02018518
                   Y -0.00613309  0.58109806  0.11893468 -0.07189978  0.43279270
                   Z -0.00480892  0.47305500  0.09664629 -0.05801310  0.34627830
  7   H            X -0.00210340  0.27952347  0.05559036 -0.02575270 -0.36893832
                   Y -0.00084138  0.13300031  0.02677705 -0.01101032 -0.18545896
                   Z  0.00362731 -0.47547490 -0.09558563  0.04430087  0.61948225
  8   H            X -0.00120369  0.05822054 -0.26597898  0.02227328 -0.06372178
                   Y -0.00175693  0.08579341 -0.38908590  0.03457485 -0.09173409
                   Z -0.00143086  0.06374069 -0.29160767  0.02645691 -0.06664243
  9   H            X -0.00138010  0.08516343 -0.39692364  0.04919249  0.05238359
                   Y  0.00064557 -0.03569284  0.16482838 -0.02262669 -0.02082280
                   Z  0.00239625 -0.13343967  0.62178253 -0.07543643 -0.08112925
 10   H            X -0.00008983  0.00798107  0.00729874  0.06578166 -0.00090142
                   Y -0.00025863  0.01221884  0.01349733  0.14008779 -0.00723864
                   Z -0.00107760  0.04768738  0.07299349  0.62902601 -0.03613317
 11   H            X -0.00088642  0.04280328  0.06624664  0.44512020  0.02967524
                   Y  0.00111392 -0.04969361 -0.07441563 -0.50925780 -0.03673384
                   Z  0.00038892 -0.01582272 -0.02437733 -0.17607955 -0.01174810
 12   B            X -0.00018553 -0.00003276 -0.00008297  0.00003072 -0.00002265
                   Y  0.00005268  0.00006334  0.00036058  0.00007259  0.00014828
                   Z  0.00008037  0.00007671  0.00004854 -0.00025162 -0.00028745
 13   H            X  0.00079017  0.00079880 -0.00189552 -0.00010937 -0.00058245
                   Y  0.00096444  0.00083568 -0.00109599 -0.00014395 -0.00070675
                   Z -0.00023746 -0.00017859  0.00031871  0.00003371  0.00044588
 14   H            X -0.00009088  0.00006549  0.00056503  0.00156756  0.00028957
                   Y -0.00012674  0.00105789 -0.00091415 -0.00255827 -0.00193935
                   Z -0.00016646 -0.00063027  0.00049451  0.00250360  0.00174167
 15   H            X  0.00245954  0.00056490 -0.00001852  0.00000802  0.00038010
                   Y  0.00021670 -0.00031136 -0.00024128  0.00007063 -0.00015647
                   Z  0.00110083  0.00011718 -0.00003983  0.00007560  0.00031247
 16   H            X  0.00015732  0.00066494 -0.00254199  0.00240679 -0.00065530
                   Y -0.00300358 -0.00031857  0.02317624 -0.01137606  0.00334819
                   Z  0.00238700 -0.00037426 -0.01763219  0.00909401 -0.00454070
 17   C            X -0.04562753 -0.00051077  0.00010144 -0.00008199 -0.00099957
                   Y -0.01160566  0.00017344 -0.00001000 -0.00013525  0.00112942
                   Z -0.02319089 -0.00008312  0.00011447 -0.00004681  0.00157928
 18   H            X  0.01936933  0.00009981 -0.00028146 -0.00002292 -0.00032475
                   Y  0.46103253  0.00305204 -0.00120746  0.00092262 -0.01106307
                   Z  0.44078020  0.00275001 -0.00119456  0.00084953 -0.01057591
 19   H            X  0.13364693  0.00230093  0.00005692  0.00002851  0.00162331
                   Y -0.44267385 -0.00622834  0.00060522  0.00001579 -0.00536756
                   Z  0.21360223  0.00325435 -0.00017229 -0.00001156  0.00277496
 20   H            X  0.35299392  0.00392313 -0.00013285  0.00028254  0.00944375
                   Y  0.11834345  0.00127501 -0.00012793  0.00014120  0.00340718
                   Z -0.39237245 -0.00428931  0.00017070 -0.00044385 -0.01071195

 TRANS. SAYVETZ    X -0.00000014 -0.00000010  0.00000023 -0.00000020  0.00000008
                   Y -0.00000026 -0.00000060 -0.00000017  0.00000019  0.00000010
                   Z -0.00000050 -0.00000016 -0.00000057  0.00000029 -0.00000001
               TOTAL  0.00000059  0.00000063  0.00000064  0.00000040  0.00000013

   ROT. SAYVETZ    X  0.00012557 -0.00006806  0.00007493 -0.00005756  0.00000081
                   Y  0.00001987  0.00004804 -0.00007037 -0.00006728 -0.00002155
                   Z  0.00005209 -0.00003120  0.00009239  0.00001188 -0.00000511
               TOTAL  0.00013739  0.00008896  0.00013821  0.00008934  0.00002216

                           56          57          58          59          60
       FREQUENCY:      3727.21     3738.85     3741.75     3751.35     3768.75  
        SYMMETRY:         A           A           A           A           A   
    REDUCED MASS:      1.11018     1.10687     1.10059     1.11121     1.11017
    IR INTENSITY:      0.00147     0.00927     0.42984     0.00892     0.01194

  1   C            X  0.00525634  0.00069517  0.00079883  0.00188087 -0.00035011
                   Y -0.00287298 -0.00056937  0.00065013 -0.00220287 -0.00010861
                   Z -0.01394189 -0.00212464 -0.00064662 -0.00617888 -0.00014129
  2   C            X -0.00019156 -0.00003776  0.00496565 -0.00032775 -0.00061551
                   Y -0.00065965  0.00049790  0.00459824 -0.00017564 -0.00002714
                   Z  0.00017989 -0.00020045 -0.00150618 -0.00003756 -0.00039863
  3   C            X -0.00006042  0.00126300  0.00847029 -0.00021230  0.00020236
                   Y  0.00596502 -0.00951109 -0.06724002  0.00203851  0.00081482
                   Z -0.00421627  0.00732650  0.05263858 -0.00155537 -0.00036576
  4   C            X -0.00771215 -0.00075555 -0.00488295  0.00007492 -0.00000352
                   Y -0.05476700 -0.00110753 -0.00420305 -0.00448344  0.00002484
                   Z -0.07017874 -0.00160811 -0.00640179 -0.00645624 -0.00001205
  5   C            X -0.00385994 -0.00038447 -0.00037594  0.02790438  0.00002713
                   Y  0.00690659  0.00057625 -0.00016346 -0.05138366  0.00002677
                   Z  0.00746592  0.00046744 -0.00220632 -0.07021037  0.00001777
  6   H            X  0.00314981  0.00054936 -0.00052604  0.00526195 -0.00000223
                   Y  0.06985777  0.01254166 -0.00114879  0.04446472  0.00112961
                   Z  0.05579832  0.00989133 -0.00119275  0.03482761  0.00096606
  7   H            X -0.06240193 -0.00914838 -0.00528958 -0.02813467  0.00057209
                   Y -0.03173560 -0.00479031 -0.00237601 -0.01341005  0.00037506
                   Z  0.10614714  0.01538956  0.00732085  0.04521450 -0.00108421
  8   H            X  0.36718899  0.00871417  0.04141677  0.03054440  0.00018127
                   Y  0.52504541  0.01241561  0.05665352  0.04534710  0.00016128
                   Z  0.38517360  0.00921148  0.04259429  0.03206923  0.00010720
  9   H            X -0.28732414 -0.00383896 -0.01147659 -0.03378766  0.00005866
                   Y  0.11467627  0.00158648  0.00457143  0.01007649 -0.00002434
                   Z  0.44326103  0.00691458  0.02136191  0.05215806 -0.00002228
 10   H            X -0.00615141 -0.00036188  0.00231047  0.07571014  0.00002198
                   Y -0.01593157 -0.00098061  0.00421392  0.14390506 -0.00006318
                   Z -0.06011840 -0.00409207  0.02156960  0.67185201 -0.00035909
 11   H            X  0.05173081  0.00400247 -0.00324112 -0.40391566 -0.00028350
                   Y -0.05718431 -0.00465054  0.00373977  0.46033161  0.00024361
                   Z -0.02008325 -0.00160328  0.00087757  0.15364406  0.00007324
 12   B            X -0.00021370  0.00044675  0.00031207 -0.00011323  0.00016074
                   Y -0.00016019 -0.00005725  0.00013819  0.00019069  0.00004922
                   Z -0.00004851 -0.00005789 -0.00063240 -0.00028812  0.00002269
 13   H            X  0.00148837 -0.00075875  0.00030188 -0.00016737 -0.00012973
                   Y  0.00083911  0.00002252  0.00228563 -0.00042646  0.00001301
                   Z  0.00023501  0.00018875 -0.00070035  0.00025634  0.00015678
 14   H            X -0.00004188 -0.00029219  0.00123931  0.00179196 -0.00022446
                   Y  0.00022833  0.00028400 -0.00131437 -0.00268484  0.00013506
                   Z  0.00007826 -0.00073864 -0.00194062  0.00222176 -0.00027613
 15   H            X  0.00120209 -0.00332829 -0.00023962  0.00095160 -0.00123295
                   Y  0.00012186  0.00014578 -0.00007032 -0.00019955  0.00033497
                   Z  0.00064553 -0.00106976 -0.00101961  0.00053422 -0.00105783
 16   H            X  0.01122268 -0.01827694 -0.12806239  0.00341645  0.00143543
                   Y -0.06314746  0.10355748  0.72319227 -0.02037666 -0.00656264
                   Z  0.05116643 -0.08221813 -0.57924376  0.01595833  0.00500819
 17   C            X -0.00042987  0.03645125 -0.00592248  0.00032122 -0.01123537
                   Y  0.00067955 -0.04793633  0.00608756 -0.00035094 -0.07641252
                   Z  0.00074397 -0.06601061  0.00973121 -0.00055310  0.04919075
 18   H            X -0.00046827  0.02160245 -0.00284098  0.00022237  0.00340852
                   Y -0.00652808  0.49805378 -0.06874511  0.00389086  0.12183120
                   Z -0.00632457  0.47152699 -0.06460119  0.00367757  0.12127985
 19   H            X  0.00097517 -0.06238184  0.00772262 -0.00047648 -0.20104962
                   Y -0.00349589  0.20994484 -0.02558969  0.00153203  0.67003055
                   Z  0.00174328 -0.10664813  0.01324884 -0.00081252 -0.32454836
 20   H            X  0.00508345 -0.38467221  0.05892024 -0.00311458  0.33807332
                   Y  0.00181629 -0.13631193  0.02071006 -0.00110634  0.11298871
                   Z -0.00527581  0.42388761 -0.06586428  0.00352554 -0.37548130

 TRANS. SAYVETZ    X -0.00000006  0.00000007  0.00000020 -0.00000001  0.00000001
                   Y  0.00000002 -0.00000004  0.00000001 -0.00000001 -0.00000011
                   Z -0.00000003  0.00000015  0.00000036  0.00000002  0.00000004
               TOTAL  0.00000007  0.00000017  0.00000041  0.00000002  0.00000011

   ROT. SAYVETZ    X  0.00004020 -0.00004295 -0.00014999 -0.00000088 -0.00002923
                   Y -0.00001599  0.00000571  0.00018285 -0.00002630 -0.00003149
                   Z -0.00000722  0.00000135  0.00025199 -0.00000671  0.00000696
               TOTAL  0.00004386  0.00004335  0.00034559  0.00002716  0.00004352

 REFERENCE ON SAYVETZ CONDITIONS - A. SAYVETZ, J.CHEM.PHYS., 7, 383-389(1939).

 NOTE - THE MODES J,K ARE ORTHONORMALIZED ACCORDING TO
 SUM ON I   M(I) * (X(I,J)*X(I,K) + Y(I,J)*Y(I,K) + Z(I,J)*Z(I,K)) = DELTA(J,K)

  MODE FREQ(CM**-1)  SYMMETRY  RED. MASS  IR INTENS.
     1      99.682    A        1.110239    0.016627
     2       3.086    A        3.079159    0.055917
     3       0.023    A        4.805826    0.000002
     4       0.007    A        4.805287    0.000000
     5       0.051    A        4.803157    0.000015
     6       3.659    A        3.120141    0.009223
     7       4.691    A        2.752559    0.087872
     8     182.673    A        1.689554    0.055258
     9     220.170    A        1.631982    0.177860
    10     232.767    A        1.453693    0.175901
    11     280.192    A        2.887408    0.209032
    12     306.308    A        2.829230    0.242025
    13     350.588    A        2.842768    0.691662
    14     368.847    A        2.758451    0.393446
    15     488.675    A        2.439992    0.584724
    16     660.817    A        3.811958    0.033406
    17     783.182    A        2.243022    0.017381
    18     919.157    A        1.570904    0.068753
    19     958.484    A        1.112496    0.715768
    20     996.667    A        1.999470    0.077175
    21    1023.843    A        1.502153    0.176870
    22    1058.671    A        1.452553    0.008199
    23    1082.388    A        1.958324    0.003718
    24    1103.648    A        1.201322    0.310582
    25    1119.201    A        1.769373    0.005283
    26    1208.760    A        1.334753    0.246973
    27    1236.009    A        1.306678    0.263506
    28    1251.356    A        1.666368    0.004579
    29    1293.890    A        1.605037    0.205819
    30    1372.205    A        1.251238    0.351544
    31    1383.521    A        1.871672    0.211982
    32    1422.471    A        1.172891    5.974401
    33    1466.086    A        1.209343    0.233672
    34    1492.576    A        1.196639    0.005562
    35    1509.234    A        1.451800    0.056946
    36    1533.145    A        1.082619    0.320143
    37    1542.803    A        1.084988    0.234760
    38    1607.736    A        1.900339    0.175954
    39    1626.672    A        1.702471    0.021581
    40    1644.228    A        1.937611    0.000513
    41    1718.152    A        1.322782    0.027214
    42    1800.060    A        1.057791    0.079396
    43    1803.387    A        1.093490    0.043414
    44    1807.424    A        1.062567    0.093803
    45    1811.834    A        1.108603    0.002064
    46    1832.309    A        1.122262    0.010015
    47    1956.237    A        5.917929    0.310178
    48    3093.840    A        1.020169    0.134718
    49    3273.929    A        1.121379    0.284296
    50    3315.817    A        1.129297    0.730076
    51    3569.777    A        1.039382    0.004380
    52    3607.398    A        1.066979    0.015300
    53    3608.535    A        1.067272    0.031059
    54    3634.164    A        1.068593    0.017528
    55    3724.424    A        1.109661    0.001200
    56    3727.208    A        1.110183    0.001471
    57    3738.853    A        1.106871    0.009273
    58    3741.754    A        1.100594    0.429843
    59    3751.346    A        1.111212    0.008921
    60    3768.752    A        1.110165    0.011938

     -------------------------------
     THERMOCHEMISTRY AT T=  298.15 K
     -------------------------------

 USING IDEAL GAS, RIGID ROTOR, HARMONIC NORMAL MODE APPROXIMATIONS.
 P=  1.01325E+05 PASCAL.
 ALL FREQUENCIES ARE SCALED BY   1.00000
 THE MOMENTS OF INERTIA ARE (IN AMU*BOHR**2)
            490.25824           762.84489           927.19522
 THE ROTATIONAL SYMMETRY NUMBER IS  1.0
 THE ROTATIONAL CONSTANTS ARE (IN GHZ)
      3.67783     2.36364     1.94467
   1 IMAGINARY FREQUENCY VIBRATION(S) IS(ARE) EXCLUDED
     FROM THE FOLLOWING THERMOCHEMICAL ANALYSIS.
      8 -     60 VIBRATIONAL MODES ARE USED IN THERMOCHEMISTRY.
 THE HARMONIC ZERO POINT ENERGY IS (SCALED BY   1.000)
        0.211897 HARTREE/MOLECULE    46506.086763 CM**-1/MOLECULE 
      132.967708 KCAL/MOL              556.336890 KJ/MOL

               Q               LN Q
 ELEC.     1.00000E+00       0.000000
 TRANS.    3.70351E+07      17.427377
 ROT.      2.10794E+05      12.258635
 VIB.      1.26840E+01       2.540339
 TOT.      9.90208E+13      32.226351

              E         H         G         CV        CP        S
           KJ/MOL    KJ/MOL    KJ/MOL   J/MOL-K   J/MOL-K   J/MOL-K
 ELEC.      0.000     0.000     0.000     0.000     0.000     0.000
 TRANS.     3.718     6.197   -43.201    12.472    20.786   165.684
 ROT.       3.718     3.718   -30.388    12.472    12.472   114.395
 VIB.     566.899   566.899   550.040    80.767    80.767    56.547
 TOTAL    574.336   576.815   476.450   105.710   114.024   336.626
 VIB. THERMAL CORRECTION E(T)-E(0) = H(T)-H(0) =     10562.142 J/MOL

              E         H         G         CV        CP        S
         KCAL/MOL  KCAL/MOL  KCAL/MOL CAL/MOL-K CAL/MOL-K CAL/MOL-K
 ELEC.      0.000     0.000     0.000     0.000     0.000     0.000
 TRANS.     0.889     1.481   -10.325     2.981     4.968    39.600
 ROT.       0.889     0.889    -7.263     2.981     2.981    27.341
 VIB.     135.492   135.492   131.463    19.304    19.304    13.515
 TOTAL    137.270   137.862   113.874    25.265    27.252    80.456
 VIB. THERMAL CORRECTION E(T)-E(0) = H(T)-H(0) =      2524.413 CAL/MOL
 ......END OF NORMAL COORDINATE ANALYSIS......
 STEP CPU TIME =     0.02 TOTAL CPU TIME =         55.3 (      0.9 MIN)
 TOTAL WALL CLOCK TIME=         55.5 SECONDS, CPU UTILIZATION IS    99.71%
               580000  WORDS OF DYNAMIC MEMORY USED
 EXECUTION OF GAMESS TERMINATED NORMALLY Sun Nov 14 02:20:42 2021
 DDI: 263640 bytes (0.3 MB / 0 MWords) used by master data server.

 ----------------------------------------
 CPU timing information for all processes
 ========================================
 0: 54.531 + 0.781 = 55.313
 ----------------------------------------
 ddikick.x: exited gracefully.
----- accounting info -----
Files used on the master node chemcompute-node-0.novalocal were:
-rw-r--r--. 1 chemcomp chemcomp     1539 Nov 14 02:19 /scratch/306326/342235.F05
-rw-rw-r--. 1 chemcomp chemcomp  8100720 Nov 14 02:20 /scratch/306326/342235.F08
-rw-rw-r--. 1 chemcomp chemcomp 85196800 Nov 14 02:20 /scratch/306326/342235.F10
-rw-rw-r--. 1 chemcomp chemcomp   564960 Nov 14 02:20 /scratch/306326/342235.F18
Sun Nov 14 02:20:45 UTC 2021
0.153u 0.073s 0:59.39 0.3%	0+0k 8+216io 0pf+0w
Finishing Up...
Looking for IR data...
Looking for Raman data...
vibramans not found
Looking for thermodynamics data...
Looking for UV-Vis data...
306326
