----- GAMESS execution script 'rungms' -----
This job is running on host chemcompute-node-0.novalocal
under operating system Linux at Mon Nov 15 05:49:26 UTC 2021
SLURM has assigned the following compute nodes to this run:
chemcompute-node-0
Available scratch disk space (Kbyte units) at beginning of the job is
Filesystem     1K-blocks     Used Available Use% Mounted on
/dev/sda1       62903276 16723064  46180212  27% /
GAMESS temporary binary files will be written to /scratch/306689
GAMESS supplementary output files will be written to /data/slurm/342703
Copying input file 342703.inp to your run's scratch directory...
The generated host list is
chemcompute-node-0.novalocal

 Distributed Data Interface kickoff program.
 Initiating 1 compute processes on 1 nodes to run the following command:
 /data/gamess-2019R1-ddi/gamess.00.x 342703 

          ******************************************************
          *         GAMESS VERSION = 30 JUN 2019 (R1)          *
          *             FROM IOWA STATE UNIVERSITY             *
          * M.W.SCHMIDT, K.K.BALDRIDGE, J.A.BOATZ, S.T.ELBERT, *
          *   M.S.GORDON, J.H.JENSEN, S.KOSEKI, N.MATSUNAGA,   *
          *          K.A.NGUYEN, S.J.SU, T.L.WINDUS,           *
          *       TOGETHER WITH M.DUPUIS, J.A.MONTGOMERY       *
          *         J.COMPUT.CHEM.  14, 1347-1363(1993)        *
          **************** 64 BIT LINUX VERSION ****************

  SINCE 1993, STUDENTS AND POSTDOCS WORKING AT IOWA STATE UNIVERSITY
  AND ALSO IN THEIR VARIOUS JOBS AFTER LEAVING ISU HAVE MADE IMPORTANT
  CONTRIBUTIONS TO THE CODE:
     IVANA ADAMOVIC, CHRISTINE AIKENS, YURI ALEXEEV, POOJA ARORA,
     ANDREY ASADCHEV, ROB BELL, PRADIPTA BANDYOPADHYAY, JONATHAN BENTZ,
     COLLEEN BERTONI, BRETT BODE, KURT BRORSEN, CALEB CARLIN, GALINA CHABAN,
     WEI CHEN, CHEOL HO CHOI, PAUL DAY, ALBERT DEFUSCO, NUWAN DESILVA,
     TIM DUDLEY, DMITRI FEDOROV, ALEX FINDLATER, GRAHAM FLETCHER, 
     MARK FREITAG, KURT GLAESEMANN, ANASTASIA GUNINA,
     DAN KEMP, GRANT MERRILL, NORIYUKI MINEZAWA, JONATHAN MULLIN,
     TAKESHI NAGATA, SEAN NEDD, HEATHER NETZLOFF, BOSILJKA NJEGIC, RYAN OLSON,
     MIKE PAK, BUU PHAM,
     SPENCER PRUITT, LUKE ROSKOP, JIM SHOEMAKER, LYUDMILA SLIPCHENKO,
     TONY SMITH, SAROM SOK LEANG, JIE SONG, TETSUYA TAKETSUGU, SIMON WEBB,
     PENG XU, SOOHAENG YOO, FEDERICO ZAHARIEV

  ADDITIONAL CODE HAS BEEN PROVIDED BY COLLABORATORS IN OTHER GROUPS:
     IOWA STATE UNIVERSITY:
          JOE IVANIC, AARON WEST, LAIMUTIS BYTAUTAS, KLAUS RUEDENBERG
     UNIVERSITY OF TOKYO: KIMIHIKO HIRAO, TAKAHITO NAKAJIMA,
          TAKAO TSUNEDA, MUNEAKI KAMIYA, SUSUMU YANAGISAWA,
          KIYOSHI YAGI, MAHITO CHIBA, SEIKEN TOKURA, NAOAKI KAWAKAMI
     UNIVERSITY OF AARHUS: FRANK JENSEN
     UNIVERSITY OF IOWA: VISVALDAS KAIRYS, HUI LI
     NATIONAL INST. OF STANDARDS AND TECHNOLOGY: WALT STEVENS, DAVID GARMER
     UNIVERSITY OF PISA: BENEDETTA MENNUCCI, JACOPO TOMASI
     UNIVERSITY OF MEMPHIS: HENRY KURTZ, PRAKASHAN KORAMBATH
     UNIVERSITY OF ALBERTA: TOBY ZENG, MARIUSZ KLOBUKOWSKI
     UNIVERSITY OF NEW ENGLAND: MARK SPACKMAN
     MIE UNIVERSITY: HIROAKI UMEDA
     NAT. INST. OF ADVANCED INDUSTRIAL SCIENCE AND TECHNOLOGY: KAZUO KITAURA
     MICHIGAN STATE UNIVERSITY:
          KAROL KOWALSKI, MARTA WLOCH, JEFFREY GOUR, JESSE LUTZ,
          WEI LI, JUN SHEN, J. EMILIANO DEUSTUA, PIOTR PIECUCH
     UNIVERSITY OF MINNESOTA:
          YINAN SHU
     UNIVERSITY OF SILESIA: MONIKA MUSIAL, STANISLAW KUCHARSKI
     FACULTES UNIVERSITAIRES NOTRE-DAME DE LA PAIX:
          OLIVIER QUINET, BENOIT CHAMPAGNE
     UNIVERSITY OF CALIFORNIA - SANTA BARBARA: BERNARD KIRTMAN
     INSTITUTE FOR MOLECULAR SCIENCE:
          KAZUYA ISHIMURA, MICHIO KATOUDA, AND SHIGERU NAGASE
     UNIVERSITY OF NOTRE DAME: ANNA POMOGAEVA, DAN CHIPMAN
     KYUSHU UNIVERSITY:
          HARUYUKI NAKANO,
          FENG LONG GU, JACEK KORCHOWIEC, MARCIN MAKOWSKI, AND YURIKO AOKI,
          HIROTOSHI MORI AND EISAKU MIYOSHI
     PENNSYLVANIA STATE UNIVERSITY:
          TZVETELIN IORDANOV, CHET SWALINA, JONATHAN SKONE,
          SHARON HAMMES-SCHIFFER
     WASEDA UNIVERSITY:
          MASATO KOBAYASHI, TOMOKO AKAMA, TSUGUKI TOUMA,
          TAKESHI YOSHIKAWA, YASUHIRO IKABATA, JUNJI SEINO,
          YUYA NAKAJIMA, HIROMI NAKAI
     NANJING UNIVERSITY: SHUHUA LI
     UNIVERSITY OF NEBRASKA:
          PEIFENG SU, DEJUN SI, NANDUN THELLAMUREGE, YALI WANG, HUI LI
     UNIVERSITY OF ZURICH: ROBERTO PEVERATI, KIM BALDRIDGE
     N. COPERNICUS UNIVERSITY AND JACKSON STATE UNIVERSITY:
          MARIA BARYSZ
     UNIVERSITY OF COPENHAGEN: Jimmy Kromann, CASPER STEINMANN
     TOKYO INSTITUTE OF TECHNOLOGY: HIROYA NAKATA
     NAGOYA UNIVERSITY: YOSHIO NISHIMOTO, STEPHAN IRLE
     MOSCOW STATE UNIVERSITY: VLADIMIR MIRONOV
     A.N.NESMEYANOV INSTITUTE OF ORGANOELEMENT COMPOUNDS OF RUSSIAN ACADEMY OF SCIENCES:
          IGOR S. GERASIMOV

 EXECUTION OF GAMESS BEGUN Mon Nov 15 05:49:26 2021

            ECHO OF THE FIRST FEW INPUT CARDS -
 INPUT CARD>!File created by the GAMESS Input Deck Generator Plugin for Avogadro            
 INPUT CARD> $BASIS GBASIS=STO NGAUSS=3 $END                                                
 INPUT CARD> $CONTRL SCFTYP=RHF RUNTYP=OPTIMIZE NZVAR=1 mult=1  ICHARG=0 $END               
 INPUT CARD> $STATPT hssend=.t. OPTTOL=0.0005 NSTEP=50 $END                                 
 INPUT CARD> $STATPT HESS=calc ihrep=5 $END                                                 
 INPUT CARD> $FORCE nvib=2 $END                                                             
 INPUT CARD> $ZMAT DLC=.t. auto=.t. nonvdw(1)=3,17,2,20,17,20 $END                          
 INPUT CARD> $ZMAT IFZMAT(1)=1,3,17,1,2,20,1,17,20 fvalue(1)=2.08,2.01,1.98 $END            
 INPUT CARD>                                                                                
 INPUT CARD> $DATA                                                                          
 INPUT CARD>Title                                                                           
 INPUT CARD>C1                                                                              
 INPUT CARD>C     6.0     0.96092     0.37955     0.83398                                   
 INPUT CARD>C     6.0     2.24131    -0.08181     0.18963                                   
 INPUT CARD>C     6.0     2.89142    -1.23462     0.51317                                   
 INPUT CARD>C     6.0     4.33645    -1.08980     0.04194                                   
 INPUT CARD>C     6.0     4.46034     0.42158    -0.14984                                   
 INPUT CARD>C     6.0     3.09127     0.77535    -0.69934                                   
 INPUT CARD>H     1.0     0.55545    -0.39640     1.51746                                   
 INPUT CARD>H     1.0     0.20269     0.59957     0.05415                                   
 INPUT CARD>H     1.0     1.15376     1.30403     1.41665                                   
 INPUT CARD>H     1.0     2.55673    -1.77600     1.41984                                   
 INPUT CARD>H     1.0     4.47233    -1.59700    -0.93778                                   
 INPUT CARD>H     1.0     5.08775    -1.47295     0.76423                                   
 INPUT CARD>H     1.0     5.32205     0.74255    -0.77262                                   
 INPUT CARD>H     1.0     4.55549     0.89517     0.85581                                   
 INPUT CARD>H     1.0     3.02818     0.40283    -1.74632                                   
 INPUT CARD>H     1.0     2.85184     1.85950    -0.67163                                   
 INPUT CARD>B     5.0     2.06247    -2.73129    -0.66834                                   
 INPUT CARD>H     1.0     2.78923    -3.29398    -1.41307                                   
 INPUT CARD>H     1.0     1.35802    -3.43018    -0.02143                                   
 INPUT CARD>H     1.0     1.26981    -1.02427    -1.29348                                   
 INPUT CARD> $END                                                                           
    1000000 WORDS OF MEMORY AVAILABLE

     BASIS OPTIONS
     -------------
     GBASIS=STO          IGAUSS=       3      POLAR=NONE    
     NDFUNC=       0     NFFUNC=       0     DIFFSP=       F
     NPFUNC=       0      DIFFS=       F     BASNAM=        


     RUN TITLE
     ---------
 Title                                                                           

 THE POINT GROUP OF THE MOLECULE IS C1      
 THE ORDER OF THE PRINCIPAL AXIS IS     0

 ATOM      ATOMIC                      COORDINATES (BOHR)
           CHARGE         X                   Y                   Z
 C           6.0     1.8158754961        0.7172454986        1.5759936792
 C           6.0     4.2354617535       -0.1545984831        0.3583487391
 C           6.0     5.4639915154       -2.3330934990        0.9697506851
 C           6.0     8.1947022595       -2.0594233814        0.0792551079
 C           6.0     8.4288204121        0.7966706819       -0.2831565420
 C           6.0     5.8416532541        1.4651990446       -1.3215609723
 H           1.0     1.0496482999       -0.7490873815        2.8675835973
 H           1.0     0.3830285605        1.1330230105        0.1023286622
 H           1.0     2.1802902556        2.4642593798        2.6770803205
 H           1.0     4.8315191246       -3.3561533542        2.6831085464
 H           1.0     8.4514782267       -3.0178924024       -1.7721472368
 H           1.0     9.6144533940       -2.7834718936        1.4441852916
 H           1.0    10.0572161930        1.4032160322       -1.4600400926
 H           1.0     8.6086278398        1.6916260124        1.6172463976
 H           1.0     5.7224304415        0.7612383196       -3.3000662869
 H           1.0     5.3891961608        3.5139454742       -1.2691966651
 B           5.0     3.8975031579       -5.1613896930       -1.2629794666
 H           1.0     5.2708804167       -6.2247196090       -2.6703151015
 H           1.0     2.5662856858       -6.4821002886       -0.0404968279
 H           1.0     2.3995929565       -1.9355896374       -2.4443227706

          INTERNUCLEAR DISTANCES (ANGS.)
          ------------------------------

                1 C          2 C          3 C          4 C          5 C     

   1 C       0.0000000    1.5058016 *  2.5367881 *  3.7657031    3.6353279  
   2 C       1.5058016 *  0.0000000    1.3624581 *  2.3296926 *  2.3005946 *
   3 C       2.5367881 *  1.3624581 *  0.0000000    1.5268079 *  2.3757295 *
   4 C       3.7657031    2.3296926 *  1.5268079 *  0.0000000    1.5285280 *
   5 C       3.6353279    2.3005946 *  2.3757295 *  1.5285280 *  0.0000000  
   6 C       2.6544527 *  1.4991407 *  2.3558650 *  2.3619386 *  1.5170551 *
   7 H       1.1106976 *  2.1689222 *  2.6773059 *  4.1175143    4.3240197  
   8 H       1.1097100 *  2.1537421 *  3.2869775    4.4656569    4.2662485  
   9 H       1.1096643 *  2.1468339 *  3.2063191    4.2130470    3.7637854  
  10 H       2.7452208 *  2.1173536 *  1.1077726 *  2.3530580 *  3.3040860  
  11 H       4.4018046    2.9230642 *  2.1762012 *  1.1115604 *  2.1669468 *
  12 H       4.5240852    3.2198845    2.2234428 *  1.1103866 *  2.1950880 *
  13 H       4.6618009    3.3311340    3.3868008    2.2343728 *  1.1105948 *
  14 H       3.6314286    2.5987910 *  2.7244333 *  2.1564946 *  1.1156491 *
  15 H       3.3063657    2.1452139 *  2.7937861 *  2.6715891 *  2.1448035 *
  16 H       2.8342004 *  2.2097964 *  3.3134417    3.3781089    2.2197187 *
  17 B       3.6259762    2.7906703 *  2.0792174 *  2.8930904 *  3.9948982  
  18 H       4.6783302    3.6313771    2.8216674 *  3.0609399    4.2654126  
  19 H       3.9247239    3.4693413    2.7308600 *  3.7884614    4.9474169  
  20 H       2.5675299 *  2.0078990 *  2.4367705 *  3.3454330    3.6848170  

                6 C          7 H          8 H          9 H         10 H     

   1 C       2.6544527 *  1.1106976 *  1.1097100 *  1.1096643 *  2.7452208 *
   2 C       1.4991407 *  2.1689222 *  2.1537421 *  2.1468339 *  2.1173536 *
   3 C       2.3558650 *  2.6773059 *  3.2869775    3.2063191    1.1077726 *
   4 C       2.3619386 *  4.1175143    4.4656569    4.2130470    2.3530580 *
   5 C       1.5170551 *  4.3240197    4.2662485    3.7637854    3.3040860  
   6 C       0.0000000    3.5661721    2.9904080 *  2.9173380 *  3.3594707  
   7 H       3.5661721    0.0000000    1.8049022 *  1.8054362 *  2.4326832 *
   8 H       2.9904080 *  1.8049022 *  0.0000000    1.8047726 *  3.6124709  
   9 H       2.9173380 *  1.8054362 *  1.8047726 *  0.0000000    3.3845118  
  10 H       3.3594707    2.4326832 *  3.6124709    3.3845118    0.0000000  
  11 H       2.7553992 *  4.7761483    4.9029247    4.9972215    3.0430144  
  12 H       3.3440727    4.7189044    5.3538177    4.8593772    2.6320574 *
  13 H       2.2322243 *  5.4094500    5.1876622    4.7416036    4.3355472  
  14 H       2.1393430 *  4.2551444    4.4358659    3.4718115    3.3835367  
  15 H       1.1130672 *  4.1719806    3.3561574    3.7854975    3.8722260  
  16 H       1.1106196 *  3.8928918    3.0219490    2.7482605 *  4.2045448  
  17 B       3.6545745    3.5356106    3.8827055    4.6321426    2.3489078 *
  18 H       4.1424733    4.6876166    4.8992505    5.6412564    3.2223747  
  19 H       4.5989347    3.4951570    4.1927777    4.9520239    2.5000953 *
  20 H       2.6285644 *  2.9674761 *  2.3646793 *  3.5748081    3.0957013  

               11 H         12 H         13 H         14 H         15 H     

   1 C       4.4018046    4.5240852    4.6618009    3.6314286    3.3063657  
   2 C       2.9230642 *  3.2198845    3.3311340    2.5987910 *  2.1452139 *
   3 C       2.1762012 *  2.2234428 *  3.3868008    2.7244333 *  2.7937861 *
   4 C       1.1115604 *  1.1103866 *  2.2343728 *  2.1564946 *  2.6715891 *
   5 C       2.1669468 *  2.1950880 *  1.1105948 *  1.1156491 *  2.1448035 *
   6 C       2.7553992 *  3.3440727    2.2322243 *  2.1393430 *  1.1130672 *
   7 H       4.7761483    4.7189044    5.4094500    4.2551444    4.1719806  
   8 H       4.9029247    5.3538177    5.1876622    4.4358659    3.3561574  
   9 H       4.9972215    4.8593772    4.7416036    3.4718115    3.7854975  
  10 H       3.0430144    2.6320574 *  4.3355472    3.3835367    3.8722260  
  11 H       0.0000000    1.8141026 *  2.4945533 *  3.0716106    2.5958864 *
  12 H       1.8141026 *  0.0000000    2.7065189 *  2.4289257 *  3.7500987  
  13 H       2.4945533 *  2.7065189 *  0.0000000    1.8062922 *  2.5150231 *
  14 H       3.0716106    2.4289257 *  1.8062922 *  0.0000000    3.0571482  
  15 H       2.5958864 *  3.7500987    2.5150231 *  3.0571482    0.0000000  
  16 H       3.8267762    4.2621838    2.7128792 *  2.4830281 *  1.8187748 *
  17 B       2.6770575 *  3.5760307    4.7647980    4.6571874    3.4521508  
  18 H       2.4368971 *  3.6523937    4.8082146    5.0809909    3.7194834  
  19 H       3.7281595    4.2847283    5.8042653    5.4499557    4.5229023  
  20 H       3.2727170    4.3602924    4.4512467    4.3702849    2.3094466 *

               16 H         17 B         18 H         19 H         20 H     

   1 C       2.8342004 *  3.6259762    4.6783302    3.9247239    2.5675299 *
   2 C       2.2097964 *  2.7906703 *  3.6313771    3.4693413    2.0078990 *
   3 C       3.3134417    2.0792174 *  2.8216674 *  2.7308600 *  2.4367705 *
   4 C       3.3781089    2.8930904 *  3.0609399    3.7884614    3.3454330  
   5 C       2.2197187 *  3.9948982    4.2654126    4.9474169    3.6848170  
   6 C       1.1106196 *  3.6545745    4.1424733    4.5989347    2.6285644 *
   7 H       3.8928918    3.5356106    4.6876166    3.4951570    2.9674761 *
   8 H       3.0219490    3.8827055    4.8992505    4.1927777    2.3646793 *
   9 H       2.7482605 *  4.6321426    5.6412564    4.9520239    3.5748081  
  10 H       4.2045448    2.3489078 *  3.2223747    2.5000953 *  3.0957013  
  11 H       3.8267762    2.6770575 *  2.4368971 *  3.7281595    3.2727170  
  12 H       4.2621838    3.5760307    3.6523937    4.2847283    4.3602924  
  13 H       2.7128792 *  4.7647980    4.8082146    5.8042653    4.4512467  
  14 H       2.4830281 *  4.6571874    5.0809909    5.4499557    4.3702849  
  15 H       1.8187748 *  3.4521508    3.7194834    4.5229023    2.3094466 *
  16 H       0.0000000    4.6581615    5.2069194    5.5348869    3.3474835  
  17 B       4.6581615    0.0000000    1.1829721 *  1.1845630 *  1.9831861 *
  18 H       5.2069194    1.1829721 *  0.0000000    2.0008934 *  2.7339573 *
  19 H       5.5348869    1.1845630 *  2.0008934 *  0.0000000    2.7229203 *
  20 H       3.3474835    1.9831861 *  2.7339573 *  2.7229203 *  0.0000000  

  * ... LESS THAN  3.000


     ATOMIC BASIS SET
     ----------------
 THE CONTRACTED PRIMITIVE FUNCTIONS HAVE BEEN UNNORMALIZED
 THE CONTRACTED BASIS FUNCTIONS ARE NOW NORMALIZED TO UNITY

  SHELL TYPE  PRIMITIVE        EXPONENT          CONTRACTION COEFFICIENT(S)

 C         

      1   S       1            71.6168373    0.154328967295
      1   S       2            13.0450963    0.535328142282
      1   S       3             3.5305122    0.444634542185

      2   L       4             2.9412494   -0.099967229187    0.155916274999
      2   L       5             0.6834831    0.399512826089    0.607683718598
      2   L       6             0.2222899    0.700115468880    0.391957393099

 C         

      3   S       7            71.6168373    0.154328967295
      3   S       8            13.0450963    0.535328142282
      3   S       9             3.5305122    0.444634542185

      4   L      10             2.9412494   -0.099967229187    0.155916274999
      4   L      11             0.6834831    0.399512826089    0.607683718598
      4   L      12             0.2222899    0.700115468880    0.391957393099

 C         

      5   S      13            71.6168373    0.154328967295
      5   S      14            13.0450963    0.535328142282
      5   S      15             3.5305122    0.444634542185

      6   L      16             2.9412494   -0.099967229187    0.155916274999
      6   L      17             0.6834831    0.399512826089    0.607683718598
      6   L      18             0.2222899    0.700115468880    0.391957393099

 C         

      7   S      19            71.6168373    0.154328967295
      7   S      20            13.0450963    0.535328142282
      7   S      21             3.5305122    0.444634542185

      8   L      22             2.9412494   -0.099967229187    0.155916274999
      8   L      23             0.6834831    0.399512826089    0.607683718598
      8   L      24             0.2222899    0.700115468880    0.391957393099

 C         

      9   S      25            71.6168373    0.154328967295
      9   S      26            13.0450963    0.535328142282
      9   S      27             3.5305122    0.444634542185

     10   L      28             2.9412494   -0.099967229187    0.155916274999
     10   L      29             0.6834831    0.399512826089    0.607683718598
     10   L      30             0.2222899    0.700115468880    0.391957393099

 C         

     11   S      31            71.6168373    0.154328967295
     11   S      32            13.0450963    0.535328142282
     11   S      33             3.5305122    0.444634542185

     12   L      34             2.9412494   -0.099967229187    0.155916274999
     12   L      35             0.6834831    0.399512826089    0.607683718598
     12   L      36             0.2222899    0.700115468880    0.391957393099

 H         

     13   S      37             3.4252509    0.154328967295
     13   S      38             0.6239137    0.535328142282
     13   S      39             0.1688554    0.444634542185

 H         

     14   S      40             3.4252509    0.154328967295
     14   S      41             0.6239137    0.535328142282
     14   S      42             0.1688554    0.444634542185

 H         

     15   S      43             3.4252509    0.154328967295
     15   S      44             0.6239137    0.535328142282
     15   S      45             0.1688554    0.444634542185

 H         

     16   S      46             3.4252509    0.154328967295
     16   S      47             0.6239137    0.535328142282
     16   S      48             0.1688554    0.444634542185

 H         

     17   S      49             3.4252509    0.154328967295
     17   S      50             0.6239137    0.535328142282
     17   S      51             0.1688554    0.444634542185

 H         

     18   S      52             3.4252509    0.154328967295
     18   S      53             0.6239137    0.535328142282
     18   S      54             0.1688554    0.444634542185

 H         

     19   S      55             3.4252509    0.154328967295
     19   S      56             0.6239137    0.535328142282
     19   S      57             0.1688554    0.444634542185

 H         

     20   S      58             3.4252509    0.154328967295
     20   S      59             0.6239137    0.535328142282
     20   S      60             0.1688554    0.444634542185

 H         

     21   S      61             3.4252509    0.154328967295
     21   S      62             0.6239137    0.535328142282
     21   S      63             0.1688554    0.444634542185

 H         

     22   S      64             3.4252509    0.154328967295
     22   S      65             0.6239137    0.535328142282
     22   S      66             0.1688554    0.444634542185

 B         

     23   S      67            48.7911132    0.154328967295
     23   S      68             8.8873622    0.535328142282
     23   S      69             2.4052670    0.444634542185

     24   L      70             2.2369561   -0.099967229187    0.155916274999
     24   L      71             0.5198205    0.399512826089    0.607683718598
     24   L      72             0.1690618    0.700115468880    0.391957393099

 H         

     25   S      73             3.4252509    0.154328967295
     25   S      74             0.6239137    0.535328142282
     25   S      75             0.1688554    0.444634542185

 H         

     26   S      76             3.4252509    0.154328967295
     26   S      77             0.6239137    0.535328142282
     26   S      78             0.1688554    0.444634542185

 H         

     27   S      79             3.4252509    0.154328967295
     27   S      80             0.6239137    0.535328142282
     27   S      81             0.1688554    0.444634542185

 TOTAL NUMBER OF BASIS SET SHELLS             =   27
 NUMBER OF CARTESIAN GAUSSIAN BASIS FUNCTIONS =   48
 NUMBER OF ELECTRONS                          =   54
 CHARGE OF MOLECULE                           =    0
 SPIN MULTIPLICITY                            =    1
 NUMBER OF OCCUPIED ORBITALS (ALPHA)          =   27
 NUMBER OF OCCUPIED ORBITALS (BETA )          =   27
 TOTAL NUMBER OF ATOMS                        =   20
 THE NUCLEAR REPULSION ENERGY IS      301.8234125274

     $CONTRL OPTIONS
     ---------------
 SCFTYP=RHF          RUNTYP=OPTIMIZE     EXETYP=RUN     
 MPLEVL=       0     CITYP =NONE         CCTYP =NONE         VBTYP =NONE    
 DFTTYP=NONE         TDDFT =NONE    
 MULT  =       1     ICHARG=       0     NZVAR =       1     COORD =UNIQUE  
 PP    =NONE         RELWFN=NONE         LOCAL =NONE         NUMGRD=       F
 ISPHER=      -1     NOSYM =       0     MAXIT =      30     UNITS =ANGS    
 PLTORB=       F     MOLPLT=       F     AIMPAC=       F     FRIEND=        
 NPRINT=       7     IREST =       0     GEOM  =INPUT   
 NORMF =       0     NORMP =       0     ITOL  =      20     ICUT  =       9
 INTTYP=BEST         GRDTYP=BEST         QMTTOL= 1.0E-06

     $SYSTEM OPTIONS
     ---------------
  REPLICATED MEMORY=     1000000 WORDS (ON EVERY NODE).
 DISTRIBUTED MEMDDI=           0 MILLION WORDS IN AGGREGATE,
 MEMDDI DISTRIBUTED OVER   1 PROCESSORS IS           0 WORDS/PROCESSOR.
 TOTAL MEMORY REQUESTED ON EACH PROCESSOR=     1000000 WORDS.
 TIMLIM=      525600.00 MINUTES, OR     365.0 DAYS.
 PARALL= F  BALTYP=  DLB     KDIAG=    0  COREFL= F
 MXSEQ2=     300 MXSEQ3=     150  mem10=         0

          ----------------
          PROPERTIES INPUT
          ----------------

     MOMENTS            FIELD           POTENTIAL          DENSITY
 IEMOM =       1   IEFLD =       0   IEPOT =       0   IEDEN =       0
 WHERE =COMASS     WHERE =NUCLEI     WHERE =NUCLEI     WHERE =NUCLEI  
 OUTPUT=BOTH       OUTPUT=BOTH       OUTPUT=BOTH       OUTPUT=BOTH    
 IEMINT=       0   IEFINT=       0                     IEDINT=       0
                                                       MORB  =       0
          EXTRAPOLATION IN EFFECT
          SOSCF IN EFFECT
 ORBITAL PRINTING OPTION: NPREO=     1    48     2     1

     -------------------------------
     INTEGRAL TRANSFORMATION OPTIONS
     -------------------------------
     NWORD  =            0
     CUTOFF = 1.0E-09     MPTRAN =       0
     DIRTRF =       F     AOINTS =DUP     

          ----------------------
          INTEGRAL INPUT OPTIONS
          ----------------------
 NOPK  =       1 NORDER=       0 SCHWRZ=       T


 -----------------------------------------------
  STATISTICS ON AUTOMATIC COORDINATE GENERATION 
 -----------------------------------------------
  NUMBER OF USER SPECIFIED BONDS                             3
  NUMBER OF BONDS                                           21
  NUMBER OF ANGLES                                          43
  NUMBER OF TORSIONS                                        69
  NUMBER OF EXTRA COORD.                                     0
  NUMBER OF EXTRA COORD. FOR CONSTRAINTS                     0
  NUMBER OF CONSTRAINED COORD.                               3

  TOTAL NUMBER OF PRIMITIVES                               133
 -----------------------------------------------

   --- ENCODED Z MATRIX ---
 COORD  TYPE   I   J   K   L   M   N
    1      1    2  20
    2      1    3  17
    3      1   17  20
    4      1    1   7
    5      1    1   2
    6      1    1   9
    7      1    1   8
    8      1    2   6
    9      1    2   3
   10      1    3   4
   11      1    3  10
   12      1    4  12
   13      1    4  11
   14      1    4   5
   15      1    5  14
   16      1    5  13
   17      1    5   6
   18      1    6  15
   19      1    6  16
   20      1   17  19
   21      1   17  18
   22      2    1   2   3
   23      2    1   2   6
   24      2    1   2  20
   25      2    2   3  10
   26      2    2   3  17
   27      2    2   6  16
   28      2    2   1   9
   29      2    2   1   8
   30      2    2   6   5
   31      2    2   1   7
   32      2    2  20  17
   33      2    2   3   4
   34      2    2   6  15
   35      2    3   2  20
   36      2    3  17  18
   37      2    3  17  19
   38      2    3  17  20
   39      2    3   4   5
   40      2    3   4  12
   41      2    3   2   6
   42      2    3   4  11
   43      2    4   3  17
   44      2    4   3  10
   45      2    4   5   6
   46      2    4   5  13
   47      2    4   5  14
   48      2    5   4  11
   49      2    5   4  12
   50      2    5   6  16
   51      2    5   6  15
   52      2    6   2  20
   53      2    6   5  13
   54      2    6   5  14
   55      2    7   1   8
   56      2    7   1   9
   57      2    8   1   9
   58      2   10   3  17
   59      2   11   4  12
   60      2   13   5  14
   61      2   15   6  16
   62      2   18  17  19
   63      2   18  17  20
   64      2   19  17  20
   65      3    1   2   6  16
   66      3    1   2   6  15
   67      3    1   2   3  10
   68      3    1   2   6   5
   69      3    1   2   3   4
   70      3    1   2  20  17
   71      3    1   2   3  17
   72      3    2   3   4   5
   73      3    2   3   4  11
   74      3    2   3   4  12
   75      3    2   3  17  18
   76      3    2  20  17  18
   77      3    2  20  17  19
   78      3    2   3  17  19
   79      3    2  20  17   3
   80      3    2   3  17  20
   81      3    2   6   5  13
   82      3    2   6   5  14
   83      3    2   6   5   4
   84      3    3   2   1   8
   85      3    3   2   6  15
   86      3    3   2   6  16
   87      3    3   2  20  17
   88      3    3   2   1   7
   89      3    3   2   1   9
   90      3    3   4   5   6
   91      3    3   4   5  13
   92      3    3   4   5  14
   93      3    3   2   6   5
   94      3    4   5   6  16
   95      3    4   5   6  15
   96      3    4   3   2  20
   97      3    4   3   2   6
   98      3    4   3  17  20
   99      3    4   3  17  19
  100      3    4   3  17  18
  101      3    5   4   3  17
  102      3    5   4   3  10
  103      3    5   6   2  20
  104      3    6   2   1   7
  105      3    6   5   4  11
  106      3    6   5   4  12
  107      3    6   2  20  17
  108      3    6   2   3  17
  109      3    6   2   3  10
  110      3    6   2   1   8
  111      3    6   2   1   9
  112      3    7   1   2  20
  113      3    8   1   2  20
  114      3    9   1   2  20
  115      3   10   3   4  11
  116      3   10   3   4  12
  117      3   10   3   2  20
  118      3   10   3  17  20
  119      3   10   3  17  19
  120      3   10   3  17  18
  121      3   11   4   5  14
  122      3   11   4   5  13
  123      3   11   4   3  17
  124      3   12   4   5  14
  125      3   12   4   5  13
  126      3   12   4   3  17
  127      3   13   5   6  15
  128      3   13   5   6  16
  129      3   14   5   6  15
  130      3   14   5   6  16
  131      3   15   6   2  20
  132      3   16   6   2  20
  133      3   17   3   2  20

          INDEP./SYM. INTERNAL COORDINATES
          --------------------------------
 CRD  1=   1.0000 (  1)
 CRD  2=   1.0000 (  2)
 CRD  3=   1.0000 (  3)
 CRD  4=  -0.3683 (  5) -0.2004 (  8) -0.1800 (  9) -0.1590 ( 10)  0.1442 ( 28)
          -0.3705 ( 29) -0.1002 ( 36) -0.1226 ( 42) -0.1509 ( 43)  0.1110 ( 54)
           0.1573 ( 55)  0.1076 ( 57)  0.1061 ( 62)  0.1127 ( 66)  0.2019 ( 68)
          -0.2323 ( 69)  0.1360 ( 72)  0.1210 ( 74)  0.1324 ( 76) -0.1035 ( 77)
           0.1435 ( 93) -0.1412 ( 96) -0.1801 ( 97) -0.1156 (104) -0.1000 (105)
 CRD  5=   0.1698 (  5)  0.2890 (  8)  0.1190 ( 19)  0.1500 ( 26)  0.1450 ( 29)
          -0.1684 ( 30)  0.1089 ( 32)  0.1874 ( 34) -0.1565 ( 35) -0.1035 ( 38)
          -0.1470 ( 47)  0.1814 ( 52) -0.1420 ( 58)  0.1104 ( 63)  0.1052 ( 72)
          -0.1595 ( 77) -0.1315 ( 90) -0.1195 ( 91) -0.1318 ( 95) -0.1070 ( 97)
           0.2557 (101)  0.1789 (103) -0.1461 (108) -0.1416 (112) -0.1365 (113)
          -0.1605 (114)  0.1438 (123)  0.1622 (126)  0.1702 (132)
 CRD  6=  -0.1247 (  5)  0.2361 (  8) -0.1462 (  9) -0.1061 ( 12)  0.1124 ( 16)
          -0.1399 ( 17)  0.1495 ( 26)  0.1694 ( 30) -0.1993 ( 33) -0.1342 ( 34)
          -0.1078 ( 35)  0.1486 ( 37) -0.1015 ( 38)  0.3359 ( 39) -0.1892 ( 42)
           0.1375 ( 44) -0.2853 ( 45)  0.1525 ( 46)  0.1076 ( 47) -0.1424 ( 49)
          -0.1631 ( 50)  0.1386 ( 59) -0.1142 ( 60) -0.1560 ( 62)  0.1302 ( 77)
          -0.1435 ( 82) -0.1220 ( 83)  0.1386 ( 98)  0.1106 ( 99)  0.1013 (100)
 CRD  7=  -0.1298 (  6) -0.1302 (  8) -0.2053 (  9)  0.1702 ( 10) -0.1954 ( 14)
          -0.1259 ( 19) -0.1032 ( 21) -0.1147 ( 27) -0.4802 ( 28)  0.3545 ( 29)
           0.1641 ( 30)  0.1023 ( 31) -0.1128 ( 36) -0.1547 ( 37) -0.1245 ( 45)
          -0.1834 ( 55)  0.1509 ( 56)  0.1569 ( 62) -0.1932 ( 77) -0.1073 (108)
 CRD  8=   0.2271 (  8) -0.3742 ( 10) -0.1289 ( 12) -0.3485 ( 14)  0.1387 ( 25)
           0.1141 ( 27) -0.1033 ( 28) -0.2035 ( 29) -0.1081 ( 30)  0.2257 ( 31)
          -0.1414 ( 37)  0.1597 ( 39) -0.1928 ( 40) -0.1028 ( 41) -0.1422 ( 44)
          -0.1148 ( 46) -0.1168 ( 48)  0.1215 ( 57) -0.1145 ( 70) -0.1177 ( 75)
          -0.1139 ( 77) -0.1273 ( 78) -0.1122 ( 90) -0.1436 ( 91) -0.1068 ( 92)
           0.1153 ( 96) -0.1320 ( 99) -0.1224 (100) -0.1463 (107)
 CRD  9=  -0.1799 (  4) -0.2444 (  8) -0.1105 ( 10) -0.3044 ( 14)  0.2531 ( 28)
           0.2789 ( 29) -0.5651 ( 31)  0.1273 ( 55)  0.1297 ( 56) -0.2224 ( 57)
          -0.1075 ( 70)
 CRD 10=   0.1261 (  9)  0.1708 ( 14)  0.1658 ( 16)  0.6352 ( 17)  0.1545 ( 19)
          -0.2054 ( 28)  0.1390 ( 29)  0.1008 ( 39) -0.1084 ( 42) -0.1308 ( 45)
           0.1399 ( 50)  0.1488 ( 53)  0.1294 ( 54)  0.1156 ( 56) -0.1102 ( 60)
           0.1078 ( 66)  0.1112 ( 92) -0.1026 (122)  0.1229 (124) -0.1097 (132)
 CRD 11=  -0.1376 (  9)  0.2356 ( 10) -0.4692 ( 14)  0.2226 ( 17) -0.1946 ( 29)
           0.1283 ( 31)  0.1628 ( 37)  0.1440 ( 40)  0.1025 ( 44) -0.1747 ( 46)
          -0.1298 ( 47) -0.1957 ( 49)  0.1136 ( 53) -0.1686 ( 74)  0.1561 ( 77)
          -0.1073 ( 81)  0.1264 (115)  0.1458 (121) -0.1480 (125) -0.1056 (126)
          -0.1115 (128)  0.1151 (129)  0.1021 (131)
 CRD 12=  -0.1026 (  7) -0.1686 (  8) -0.1609 (  9) -0.1296 ( 11)  0.1171 ( 13)
           0.1290 ( 14)  0.1223 ( 16)  0.1776 ( 17)  0.2230 ( 28) -0.1738 ( 29)
          -0.1637 ( 37) -0.1679 ( 40)  0.1364 ( 42) -0.1767 ( 45)  0.1596 ( 47)
           0.1407 ( 51)  0.2277 ( 53) -0.1485 ( 56) -0.1213 ( 58)  0.1030 ( 67)
          -0.1221 ( 68)  0.1129 ( 75) -0.2378 ( 77) -0.1021 ( 86) -0.1453 ( 91)
          -0.1269 ( 92) -0.1349 ( 93)  0.1033 ( 95)  0.1254 (101)  0.1332 (105)
           0.1422 (106)  0.1149 (109)  0.1343 (123)  0.1630 (126)
 CRD 13=  -0.1699 (  5)  0.1974 (  8)  0.1712 (  9)  0.2275 ( 10)  0.2281 ( 11)
           0.1449 ( 19)  0.1007 ( 20) -0.1674 ( 21)  0.1531 ( 27) -0.1685 ( 31)
          -0.1192 ( 34) -0.2919 ( 36)  0.1419 ( 42) -0.1618 ( 46)  0.1190 ( 47)
          -0.1654 ( 48) -0.1414 ( 54)  0.1216 ( 56)  0.1334 ( 62)  0.1024 ( 66)
           0.3174 ( 76) -0.1261 ( 81) -0.1453 ( 82)  0.1140 ( 94) -0.1292 (102)
           0.1165 (105)
 CRD 14=   0.1057 ( 15)  0.2031 ( 18) -0.1308 ( 19)  0.1084 ( 20) -0.2030 ( 21)
          -0.1478 ( 27)  0.2107 ( 34) -0.2715 ( 36)  0.2515 ( 37)  0.1290 ( 46)
           0.1315 ( 54)  0.1111 ( 72)  0.2922 ( 76)  0.2926 ( 77)  0.1913 ( 81)
           0.1799 ( 82)  0.1317 ( 83) -0.1500 ( 90) -0.1090 (103)  0.1193 (112)
           0.1094 (113)  0.1070 (114) -0.1132 (131)
 CRD 15=  -0.3780 ( 11)  0.2083 ( 13) -0.2635 ( 18)  0.1399 ( 20) -0.1005 ( 28)
           0.1270 ( 33)  0.2647 ( 37) -0.1369 ( 46)  0.1592 ( 47)  0.1459 ( 53)
          -0.1613 ( 54) -0.1540 ( 62) -0.1115 ( 67)  0.2818 ( 77)  0.1018 ( 84)
          -0.1169 ( 92) -0.1287 ( 98)  0.1120 (101)  0.1002 (106) -0.1093 (109)
           0.1150 (110)  0.1117 (111)
 CRD 16=  -0.1031 ( 10) -0.2245 ( 11) -0.1961 ( 13) -0.3561 ( 15)  0.2677 ( 16)
           0.1648 ( 20) -0.1255 ( 21) -0.1380 ( 27) -0.1328 ( 36)  0.1056 ( 37)
          -0.1044 ( 44)  0.1314 ( 46) -0.1584 ( 47) -0.1193 ( 73)  0.1270 ( 76)
          -0.1129 ( 83) -0.1529 ( 84) -0.1479 ( 88) -0.1483 ( 89)  0.1220 ( 90)
          -0.2292 ( 94) -0.1908 ( 95) -0.1018 ( 99) -0.1004 (104)  0.1175 (105)
           0.1952 (106) -0.1054 (110) -0.1008 (111) -0.1238 (112) -0.1289 (113)
          -0.1242 (114)
 CRD 17=   0.1555 ( 10)  0.3008 ( 11) -0.3460 ( 15)  0.2329 ( 16) -0.1718 ( 18)
          -0.1789 ( 20)  0.1368 ( 21) -0.1343 ( 27)  0.1435 ( 36) -0.1526 ( 40)
           0.1718 ( 42) -0.1357 ( 48)  0.1071 ( 49) -0.1415 ( 51) -0.1306 ( 54)
          -0.1038 ( 76)  0.1237 ( 84)  0.1218 ( 88)  0.1261 ( 89) -0.1130 ( 92)
          -0.1358 ( 94) -0.1329 ( 95)  0.1142 (104)  0.1897 (105)  0.1682 (106)
           0.1160 (110)  0.1185 (111)  0.1060 (112)  0.1079 (113)  0.1103 (114)
          -0.1036 (118)
 CRD 18=   0.2086 (  6)  0.1468 (  8)  0.2490 ( 10)  0.1177 ( 13)  0.1310 ( 15)
           0.1426 ( 18) -0.1487 ( 19)  0.1532 ( 21) -0.1634 ( 29) -0.1475 ( 31)
          -0.1047 ( 37)  0.1238 ( 40)  0.1667 ( 48) -0.1310 ( 49) -0.1559 ( 50)
           0.1860 ( 55) -0.1107 ( 68) -0.1371 ( 70) -0.1424 ( 73) -0.1222 ( 74)
          -0.1201 ( 78) -0.1062 ( 80)  0.1132 ( 86) -0.1020 ( 87)  0.1003 ( 96)
          -0.1822 ( 98) -0.1961 ( 99) -0.1212 (100) -0.1796 (107) -0.1713 (118)
          -0.1852 (119) -0.1104 (120) -0.1046 (123)  0.1008 (133)
 CRD 19=   0.1986 ( 11) -0.1936 ( 12)  0.2811 ( 13)  0.1049 ( 19) -0.1041 ( 27)
           0.1223 ( 36) -0.1183 ( 46)  0.1997 ( 50) -0.1341 ( 51)  0.1062 ( 58)
          -0.1326 ( 62) -0.1272 ( 65) -0.1265 ( 67) -0.1475 ( 76) -0.1522 ( 84)
          -0.1449 ( 85) -0.1847 ( 86) -0.1621 ( 88) -0.1576 ( 89) -0.1262 ( 91)
          -0.1055 ( 92)  0.1013 (102) -0.2282 (104) -0.2183 (110) -0.2237 (111)
          -0.1666 (112) -0.1567 (113) -0.1621 (114) -0.1298 (117) -0.1143 (131)
          -0.1541 (132)
 CRD 20=  -0.4372 (  4) -0.1342 (  5) -0.4138 (  6) -0.4074 (  7)  0.2091 ( 11)
          -0.1645 ( 12)  0.1778 ( 13)  0.1846 ( 28)  0.1639 ( 29)  0.1418 ( 31)
           0.1084 ( 48) -0.1151 ( 49) -0.1572 ( 55) -0.1665 ( 56) -0.1786 ( 57)
          -0.1178 (123) -0.1185 (126)
 CRD 21=   0.2239 (  4)  0.1717 (  5)  0.2095 (  6)  0.2173 (  7) -0.1227 ( 10)
           0.1947 ( 11) -0.3831 ( 12)  0.1312 ( 13)  0.1476 ( 16) -0.1325 ( 21)
           0.1432 ( 48) -0.1682 ( 49)  0.1181 ( 51)  0.1074 ( 62) -0.1422 ( 73)
          -0.1365 ( 74)  0.1305 ( 85)  0.1126 ( 86)  0.1071 ( 98)  0.1445 ( 99)
           0.1079 (107) -0.1310 (115) -0.1252 (116)  0.1027 (118)  0.1400 (119)
          -0.1911 (123) -0.1853 (126)
 CRD 22=   0.1687 (  6) -0.2236 (  7) -0.3796 ( 18)  0.2449 ( 19)  0.1464 ( 20)
          -0.1245 ( 36) -0.1258 ( 37)  0.1007 ( 40) -0.1075 ( 42)  0.1155 ( 50)
          -0.2025 ( 51)  0.2326 ( 62) -0.2074 ( 65) -0.2608 ( 66)  0.1114 ( 76)
          -0.1477 ( 77) -0.1741 ( 85) -0.1207 ( 86)  0.1213 (104) -0.1010 (127)
          -0.1049 (129) -0.1853 (131) -0.1320 (132)
 CRD 23=  -0.1053 ( 12)  0.5786 ( 20)  0.6810 ( 21)  0.1967 ( 62) -0.1045 ( 64)
           0.1102 ( 99)  0.1094 (119)
 CRD 24=   0.1838 (  4)  0.3217 ( 12)  0.3229 ( 13) -0.1116 ( 15) -0.1613 ( 19)
           0.3545 ( 20) -0.1860 ( 21) -0.1877 ( 63)  0.2260 ( 64) -0.1768 ( 75)
          -0.1043 ( 76) -0.1314 ( 77) -0.1856 ( 78)  0.1491 ( 89) -0.1435 ( 99)
          -0.1347 (100)  0.1314 (114) -0.1920 (119) -0.1832 (120)
 CRD 25=  -0.5801 (  4)  0.3444 (  6)  0.2667 (  7) -0.1299 ( 18) -0.1651 ( 19)
           0.1039 ( 31) -0.1866 ( 55) -0.1506 ( 56)  0.3352 ( 57)  0.1921 ( 84)
          -0.1595 ( 89)  0.1877 (110) -0.1638 (111)  0.1894 (113) -0.1621 (114)
 CRD 26=   0.5123 (  6) -0.5344 (  7) -0.2906 ( 55)  0.3040 ( 56) -0.2192 ( 88)
           0.1089 ( 89) -0.2308 (104) -0.2197 (112)  0.1084 (114)
 CRD 27=  -0.1472 (  4)  0.1305 (  7)  0.1020 ( 13) -0.3395 ( 15) -0.2229 ( 16)
           0.5480 ( 18)  0.4790 ( 19)  0.1843 ( 61)  0.1135 (127) -0.1358 (130)
 CRD 28=   0.1007 ( 11)  0.1533 ( 12)  0.2961 ( 13) -0.3677 ( 15) -0.4928 ( 16)
          -0.2761 ( 18) -0.1294 ( 19)  0.1060 ( 46)  0.1410 ( 54) -0.1910 ( 60)
          -0.1155 ( 84)  0.1249 ( 92)  0.1301 (121)  0.2142 (124)  0.1330 (128)
 CRD 29=  -0.1089 ( 11)  0.3951 ( 12)  0.2345 ( 13)  0.1331 ( 16)  0.1013 ( 18)
          -0.2401 ( 19) -0.2232 ( 20)  0.1880 ( 21) -0.1090 ( 42)  0.1533 ( 59)
           0.1502 ( 63) -0.1643 ( 64)  0.1290 ( 75)  0.1445 ( 78)  0.1589 ( 99)
           0.1435 (100) -0.1113 (104) -0.1244 (105) -0.1156 (116)  0.1481 (119)
           0.1327 (120) -0.2030 (121) -0.1604 (122) -0.1379 (127) -0.1014 (129)
 CRD 30=   0.2368 ( 12)  0.3954 ( 13)  0.2659 ( 15)  0.3418 ( 16)  0.3710 ( 19)
          -0.1011 ( 40) -0.1358 ( 47)  0.1439 ( 59)  0.1190 ( 60)  0.1119 ( 61)
          -0.1011 ( 66)  0.1080 ( 82)  0.1229 (106)  0.1273 (115)  0.1138 (124)
           0.2045 (125)  0.2123 (129)  0.1394 (130)
 CRD 31=  -0.2597 ( 11) -0.2404 ( 12)  0.2090 ( 13) -0.1112 ( 15) -0.1822 ( 18)
          -0.1121 ( 53) -0.1028 ( 58) -0.1042 ( 61) -0.1222 ( 73) -0.1168 ( 74)
           0.1049 ( 81)  0.1049 ( 82) -0.1042 ( 85) -0.2032 ( 86)  0.1057 ( 89)
          -0.1047 ( 93)  0.1268 ( 94)  0.1188 ( 97) -0.1090 (102) -0.1274 (104)
           0.1965 (109) -0.1489 (115) -0.1435 (116)  0.1341 (117) -0.1266 (120)
           0.1166 (121)  0.1173 (122)  0.1466 (127)  0.1950 (128)  0.1466 (129)
           0.1950 (130) -0.1279 (132)
 CRD 32=  -0.1148 (  8)  0.1825 (  9)  0.1202 ( 11)  0.1011 ( 20)  0.1574 ( 21)
           0.1529 ( 23) -0.2916 ( 62)  0.2239 ( 63)  0.1885 ( 64)  0.1118 ( 70)
           0.2870 ( 75) -0.2028 ( 78) -0.2229 ( 99)  0.2670 (100) -0.1156 (102)
          -0.1374 (115) -0.1310 (116) -0.1340 (119)  0.3558 (120)
 CRD 33=  -0.1630 ( 12)  0.1728 ( 13)  0.3591 ( 15) -0.2749 ( 16)  0.1398 ( 18)
          -0.1014 ( 19) -0.1011 ( 40) -0.1406 ( 81) -0.1276 ( 82)  0.1006 ( 90)
           0.1540 ( 91)  0.1342 ( 92) -0.1813 ( 94) -0.1651 ( 95)  0.1615 (105)
           0.1831 (106)  0.1951 (121)  0.2149 (122)  0.2167 (124)  0.2364 (125)
          -0.2058 (127) -0.2219 (128) -0.1928 (129) -0.2089 (130)
 CRD 34=  -0.1935 (  4) -0.1582 (  6) -0.2343 (  7)  0.1039 (  8)  0.2217 (  9)
          -0.2859 ( 11) -0.1104 ( 12)  0.1495 ( 13) -0.1560 ( 15)  0.1630 ( 16)
           0.1549 ( 18) -0.1696 ( 19)  0.1472 ( 24) -0.1700 ( 28) -0.1742 ( 29)
          -0.1671 ( 31) -0.1066 ( 41)  0.2066 ( 55)  0.1379 ( 56)  0.1792 ( 57)
          -0.1646 ( 76) -0.1049 ( 77)  0.1046 ( 78)  0.1037 ( 80) -0.1306 ( 96)
           0.1266 (103) -0.1244 (117)  0.1607 (118)  0.1616 (119)  0.1408 (132)
 CRD 35=   0.1058 (  6)  0.1324 (  7)  0.2167 (  8) -0.1908 (  9) -0.3390 ( 11)
          -0.1284 ( 12)  0.1411 ( 19)  0.1194 ( 21) -0.1190 ( 23) -0.1166 ( 26)
           0.1126 ( 28) -0.1291 ( 32)  0.1621 ( 35) -0.1169 ( 48) -0.1522 ( 57)
           0.1017 ( 58) -0.1478 ( 61) -0.1101 ( 62)  0.1268 ( 64)  0.1399 ( 73)
           0.1083 ( 75) -0.1329 ( 78) -0.1053 ( 82) -0.1136 ( 95)  0.1599 (100)
          -0.1144 (103)  0.1060 (107)  0.1369 (112)  0.1213 (113)  0.1894 (114)
           0.1684 (115) -0.1573 (119) -0.1175 (126) -0.1753 (129) -0.1330 (132)
 CRD 36=   0.1481 (  4) -0.1793 (  5)  0.1350 (  9) -0.2019 ( 12)  0.2280 ( 13)
          -0.2040 ( 15)  0.1168 ( 16)  0.1345 ( 18) -0.1398 ( 19)  0.1323 ( 20)
          -0.1072 ( 26)  0.1236 ( 28)  0.1125 ( 31)  0.1282 ( 36)  0.1316 ( 52)
          -0.1490 ( 56) -0.1344 ( 58) -0.1081 ( 65)  0.2356 ( 67)  0.1338 ( 73)
           0.1694 ( 74) -0.1535 ( 76)  0.1475 ( 77) -0.1197 ( 81) -0.1238 ( 89)
           0.1029 ( 91)  0.1177 ( 93) -0.1101 ( 97) -0.1262 (102) -0.1236 (108)
           0.2562 (117)
 CRD 37=   0.2307 (  4) -0.3063 (  5)  0.1253 (  7)  0.1269 (  9) -0.1165 ( 11)
          -0.1178 ( 15)  0.1540 ( 16)  0.1075 ( 18) -0.1434 ( 19) -0.2136 ( 20)
           0.1375 ( 28)  0.1748 ( 29)  0.1732 ( 31) -0.1086 ( 35) -0.1293 ( 36)
          -0.1001 ( 44) -0.2164 ( 55) -0.1746 ( 56) -0.1054 ( 57)  0.1196 ( 58)
           0.1041 ( 62) -0.1012 ( 66) -0.1662 ( 67)  0.1802 ( 76) -0.1028 ( 78)
          -0.1275 ( 85)  0.1219 ( 92) -0.1249 (109) -0.1830 (117)  0.1696 (121)
 CRD 38=  -0.3217 (  5)  0.1675 (  6)  0.1650 ( 12)  0.1432 ( 15) -0.1082 ( 18)
           0.1691 ( 34)  0.1324 ( 36)  0.1662 ( 42) -0.1526 ( 50)  0.1083 ( 53)
          -0.1169 ( 56) -0.1288 ( 58) -0.1496 ( 60)  0.2211 ( 65) -0.1925 ( 76)
           0.1217 ( 81)  0.1577 ( 86) -0.1805 ( 91) -0.1124 ( 95) -0.1310 (102)
           0.1189 (105)  0.1035 (109) -0.1327 (110) -0.1847 (115) -0.2126 (116)
           0.1197 (119)  0.1781 (121) -0.1244 (125) -0.1110 (129)  0.1286 (132)
 CRD 39=  -0.2308 (  8)  0.1806 (  9) -0.2461 ( 10)  0.1895 ( 16)  0.1064 ( 17)
           0.2750 ( 20) -0.3061 ( 21) -0.1346 ( 25)  0.1122 ( 34)  0.1410 ( 47)
          -0.1215 ( 48) -0.1331 ( 49) -0.1431 ( 60)  0.1426 ( 63) -0.1466 ( 64)
           0.1176 ( 73) -0.1358 ( 74) -0.1367 ( 82) -0.1055 ( 98)  0.2160 (115)
          -0.1951 (118)  0.1110 (123) -0.1424 (126)  0.1266 (128) -0.2250 (129)
          -0.1055 (130)
 CRD 40=  -0.1185 (  4)  0.1061 (  6)  0.1130 (  8) -0.2002 (  9)  0.1513 ( 11)
           0.1241 ( 18) -0.1099 ( 19)  0.2890 ( 20) -0.2702 ( 21)  0.1419 ( 27)
          -0.1615 ( 46)  0.1293 ( 48)  0.1292 ( 49) -0.1491 ( 57)  0.1777 ( 63)
          -0.1172 ( 64) -0.1662 ( 73)  0.1895 ( 75)  0.1274 ( 78) -0.1675 ( 81)
          -0.1196 ( 85)  0.1108 ( 92)  0.1235 ( 94)  0.1117 (100)  0.1246 (114)
           0.1309 (116)  0.1370 (120) -0.1106 (123)  0.1128 (124)  0.1115 (126)
          -0.1280 (127)  0.1716 (130) -0.1066 (131)
 CRD 41=  -0.1984 (  5)  0.1863 ( 10) -0.1161 ( 12) -0.3396 ( 14)  0.2568 ( 17)
           0.1467 ( 19)  0.1195 ( 34) -0.1654 ( 42) -0.1273 ( 44)  0.1410 ( 46)
           0.1605 ( 47) -0.1634 ( 53) -0.1826 ( 54) -0.1241 ( 61)  0.1296 ( 81)
           0.1822 ( 91) -0.1011 (105)  0.1101 (119) -0.2492 (121)  0.2032 (125)
           0.1238 (126)  0.1487 (128) -0.1964 (129)  0.1286 (131)
 CRD 42=   0.3056 (  5) -0.1079 (  6) -0.1902 (  8) -0.2899 (  9) -0.1708 ( 10)
           0.2191 ( 11)  0.1012 ( 13) -0.1303 ( 14) -0.1173 ( 15)  0.2407 ( 16)
          -0.1101 ( 20)  0.1491 ( 21)  0.1027 ( 27)  0.1081 ( 37)  0.1150 ( 40)
          -0.1008 ( 44)  0.1107 ( 47)  0.1122 ( 56) -0.1555 ( 59) -0.1165 ( 61)
          -0.1574 ( 82)  0.1369 ( 92) -0.1007 ( 99) -0.1282 (100) -0.1085 (106)
          -0.1169 (115)  0.1897 (121)  0.1348 (122)  0.1263 (126) -0.1887 (129)
 CRD 43=   0.2143 (  8) -0.1296 (  9)  0.1044 ( 12) -0.1116 ( 17)  0.1976 ( 20)
          -0.1841 ( 21)  0.1552 ( 25) -0.1716 ( 27) -0.1092 ( 34)  0.1412 ( 36)
           0.1400 ( 40)  0.1453 ( 42) -0.1124 ( 43) -0.1657 ( 44)  0.1280 ( 46)
          -0.1302 ( 49)  0.1475 ( 50)  0.1203 ( 51) -0.1048 ( 59) -0.1074 ( 64)
          -0.1449 ( 65)  0.1189 ( 85) -0.1399 ( 94)  0.1299 (105) -0.1370 (106)
          -0.1154 (107) -0.1486 (116)  0.1128 (118)  0.2259 (119)  0.1778 (120)
           0.1788 (122) -0.1930 (124)  0.1404 (127) -0.1271 (130)  0.1317 (131)
 CRD 44=   0.1002 (  5)  0.3089 (  6) -0.3058 (  7)  0.1145 ( 13) -0.1032 ( 15)
          -0.2079 ( 28)  0.1294 ( 29)  0.2514 ( 55) -0.1874 ( 56)  0.1501 ( 66)
          -0.1282 ( 67)  0.3347 ( 88)  0.1940 (104) -0.1157 (106) -0.2132 (110)
          -0.1675 (111)  0.2623 (112) -0.1449 (113) -0.1393 (128)
 CRD 45=  -0.2390 (  4)  0.1157 (  6)  0.1567 (  7) -0.1301 ( 10)  0.1536 ( 11)
           0.1503 ( 14)  0.1556 ( 17) -0.1955 ( 19)  0.1060 ( 21)  0.1741 ( 31)
           0.1425 ( 33) -0.1210 ( 49) -0.1921 ( 57)  0.1401 ( 59)  0.1269 ( 61)
          -0.1373 ( 66)  0.1151 ( 73) -0.1503 ( 74) -0.1673 ( 84) -0.1111 ( 85)
           0.1444 ( 89)  0.1112 ( 95) -0.1219 ( 99) -0.1091 (100) -0.1247 (110)
           0.1870 (111) -0.1472 (113)  0.1645 (114) -0.2109 (116)  0.1866 (123)
           0.1348 (127)  0.1071 (129)
 CRD 46=   0.2523 (  4) -0.1295 (  6) -0.1222 (  7) -0.1474 (  9) -0.1175 ( 12)
           0.1763 ( 14)  0.2839 ( 22) -0.3120 ( 23)  0.1053 ( 24) -0.1279 ( 43)
          -0.1297 ( 55)  0.2033 ( 57)  0.1144 ( 59)  0.1100 ( 67) -0.2945 ( 70)
           0.1441 ( 71)  0.1063 ( 73)  0.1123 ( 84) -0.2043 ( 89) -0.1170 (102)
           0.1437 (110) -0.1729 (111)  0.2019 (113) -0.1147 (114) -0.1669 (116)
           0.1359 (123)
 CRD 47=  -0.1154 (  4)  0.1464 (  5)  0.1238 (  7) -0.1090 (  8) -0.1084 ( 11)
          -0.1620 ( 12)  0.1934 ( 13) -0.2311 ( 18) -0.1139 ( 22)  0.1393 ( 25)
           0.1050 ( 41) -0.1067 ( 47)  0.1277 ( 49) -0.1339 ( 50)  0.1084 ( 56)
           0.1461 ( 61)  0.1695 ( 65)  0.1665 ( 71)  0.1205 ( 74) -0.1156 ( 78)
          -0.1251 ( 80)  0.1614 ( 86) -0.1208 ( 87) -0.1663 ( 94)  0.1040 ( 97)
          -0.1248 (102) -0.1277 (104) -0.1113 (106)  0.1902 (108) -0.1116 (110)
          -0.1502 (122) -0.1663 (125)  0.1014 (126) -0.1265 (128)  0.1911 (132)
           0.1190 (133)
 CRD 48=  -0.1478 (  9)  0.1291 ( 10) -0.1192 ( 16)  0.3486 ( 17) -0.1302 ( 19)
          -0.1288 ( 22) -0.1433 ( 24)  0.1400 ( 27) -0.1141 ( 31)  0.1886 ( 41)
          -0.1008 ( 45) -0.1166 ( 49) -0.1051 ( 50) -0.1039 ( 54)  0.1783 ( 60)
           0.1296 ( 65) -0.1153 ( 66) -0.1271 ( 67) -0.1038 ( 71)  0.1012 ( 84)
          -0.1553 ( 85)  0.1162 ( 91) -0.1667 ( 92)  0.1073 ( 96)  0.1037 (102)
          -0.1198 (103)  0.1046 (105)  0.1567 (107)  0.2347 (122) -0.1662 (124)
           0.1167 (125) -0.2571 (131)
 CRD 49=  -0.2563 (  8)  0.2704 ( 14) -0.1783 ( 16)  0.2150 ( 19)  0.1170 ( 23)
           0.2009 ( 30)  0.1124 ( 34) -0.1762 ( 45) -0.1190 ( 47) -0.1044 ( 50)
           0.1325 ( 53)  0.1828 ( 60) -0.2221 ( 61) -0.1002 ( 81)  0.2177 ( 82)
           0.1245 ( 85)  0.1008 ( 94) -0.2228 ( 95) -0.1147 (124) -0.3277 (127)
           0.3138 (130)  0.1503 (131)
 CRD 50=   0.1126 (  8) -0.3997 ( 10)  0.1757 ( 13) -0.1263 ( 16)  0.1527 ( 17)
           0.1199 ( 22) -0.1869 ( 25)  0.1756 ( 39) -0.1202 ( 41)  0.1134 ( 44)
           0.1362 ( 46) -0.2145 ( 59)  0.1069 ( 67) -0.1037 ( 73)  0.1142 ( 75)
           0.1009 ( 80) -0.1046 ( 94)  0.1595 (105) -0.1406 (106)  0.1118 (109)
           0.1752 (116) -0.1054 (118) -0.1325 (119)  0.1524 (122) -0.2826 (124)
          -0.1476 (125)  0.1117 (126)
 CRD 51=   0.2030 (  5) -0.1950 (  8) -0.1419 ( 11)  0.1023 ( 12) -0.1575 ( 14)
           0.1371 ( 15)  0.1636 ( 18)  0.1321 ( 27) -0.1043 ( 33) -0.1578 ( 43)
           0.1023 ( 46) -0.1615 ( 51) -0.1399 ( 54)  0.1113 ( 68)  0.1650 ( 71)
           0.1018 ( 74) -0.1450 ( 78) -0.1209 ( 80) -0.1436 ( 83) -0.1151 ( 87)
           0.1802 ( 93) -0.1118 ( 96) -0.1365 ( 97)  0.1228 (100)  0.1648 (103)
           0.1534 (105) -0.1489 (115) -0.1294 (123)  0.1320 (127)  0.2574 (128)
           0.1364 (130)  0.1143 (133)
 CRD 52=   0.1195 (  8) -0.1871 (  9) -0.1397 ( 12)  0.1758 ( 15)  0.1115 ( 18)
          -0.2053 ( 22)  0.2453 ( 23) -0.1009 ( 24)  0.1063 ( 27)  0.1021 ( 28)
          -0.1485 ( 31)  0.1195 ( 33)  0.1076 ( 40) -0.1189 ( 44) -0.1043 ( 47)
          -0.1616 ( 48) -0.1045 ( 51)  0.1418 ( 53) -0.1025 ( 60)  0.2356 ( 70)
          -0.1257 ( 71) -0.1555 ( 72) -0.1671 ( 83)  0.2024 ( 90)  0.1111 ( 92)
          -0.1101 ( 95) -0.1196 ( 98) -0.1470 (100) -0.1409 (102) -0.2045 (122)
           0.1280 (123) -0.2063 (125)  0.2081 (128)  0.1175 (130)
 CRD 53=   0.1848 (  5)  0.1933 (  8) -0.1030 (  9) -0.1196 ( 10) -0.1130 ( 13)
          -0.1119 ( 15)  0.1220 ( 17) -0.2500 ( 22)  0.3631 ( 23)  0.1050 ( 28)
           0.1397 ( 29) -0.1019 ( 31)  0.1123 ( 33) -0.1079 ( 41) -0.2360 ( 43)
          -0.1437 ( 52) -0.1337 ( 69)  0.2124 ( 70)  0.1091 ( 72) -0.1132 ( 81)
          -0.1980 ( 96) -0.1418 (107)  0.1707 (108)  0.1443 (109) -0.1078 (111)
          -0.1663 (115) -0.1887 (116)  0.1317 (125) -0.1097 (128)
 CRD 54=   0.4277 (  5)  0.1224 (  8)  0.1832 (  9)  0.2495 ( 10)  0.2313 ( 22)
          -0.1214 ( 24)  0.2329 ( 28)  0.2327 ( 30)  0.2048 ( 31) -0.2043 ( 41)
          -0.1218 ( 45) -0.1361 ( 51) -0.1603 ( 56)  0.1088 ( 65)  0.1035 ( 66)
          -0.1323 ( 67)  0.1620 ( 68) -0.1632 ( 69) -0.1913 ( 70) -0.1686 ( 71)
          -0.1686 (107)

 THE DETERMINANT OF THE G MATRIX IS 10**(   -13)


                     --------------------
                     INTERNAL COORDINATES
                     --------------------

                 - - ATOMS - -         COORDINATE      COORDINATE
 NO.   TYPE    I  J  K  L  M  N        (BOHR,RAD)       (ANG,DEG)
 ----------------------------------------------------------------
   1 STRETCH   2 20                     3.7943789       2.0078990
   2 STRETCH   3 17                     3.9291512       2.0792174
   3 STRETCH  17 20                     3.7476783       1.9831861
   4 STRETCH   1  7                     2.0989142       1.1106976
   5 STRETCH   1  2                     2.8455525       1.5058016
   6 STRETCH   1  9                     2.0969615       1.1096643
   7 STRETCH   1  8                     2.0970479       1.1097100
   8 STRETCH   2  6                     2.8329652       1.4991407
   9 STRETCH   2  3                     2.5746725       1.3624581
  10 STRETCH   3  4                     2.8852485       1.5268079
  11 STRETCH   3 10                     2.0933867       1.1077726
  12 STRETCH   4 12                     2.0983265       1.1103866
  13 STRETCH   4 11                     2.1005445       1.1115604
  14 STRETCH   4  5                     2.8884991       1.5285280
  15 STRETCH   5 14                     2.1082711       1.1156491
  16 STRETCH   5 13                     2.0987198       1.1105948
  17 STRETCH   5  6                     2.8668184       1.5170551
  18 STRETCH   6 15                     2.1033920       1.1130672
  19 STRETCH   6 16                     2.0987666       1.1106196
  20 STRETCH  17 19                     2.2384996       1.1845630
  21 STRETCH  17 18                     2.2354931       1.1829721
  22 BEND      1  2  3                  2.1692416     124.2883869
  23 BEND      1  2  6                  2.1659737     124.1011498
  24 BEND      1  2 20                  1.6192878      92.7783566
  25 BEND      2  3 10                  2.0529687     117.6264400
  26 BEND      2  3 17                  1.8586394     106.4921914
  27 BEND      2  6 16                  2.0054738     114.9051836
  28 BEND      2  1  9                  1.9094103     109.4011513
  29 BEND      2  1  8                  1.9188041     109.9393794
  30 BEND      2  6  5                  1.7350709      99.4122424
  31 BEND      2  1  7                  1.9387254     111.0807825
  32 BEND      2 20 17                  1.5485892      88.7276230
  33 BEND      2  3  4                  1.8734503     107.3407977
  34 BEND      2  6 15                  1.9116414     109.5289849
  35 BEND      3  2 20                  1.5799167      90.5225568
  36 BEND      3 17 18                  2.0433859     117.0773851
  37 BEND      3 17 19                  1.9299254     110.5765799
  38 BEND      3 17 20                  1.2858430      73.6733786
  39 BEND      3  4  5                  1.7815754     102.0767529
  40 BEND      3  4 12                  1.9898295     114.0088338
  41 BEND      3  2  6                  1.9327151     110.7364184
  42 BEND      3  4 11                  1.9224441     110.1479323
  43 BEND      4  3 17                  1.8444216     105.6775708
  44 BEND      4  3 10                  2.1955646     125.7965836
  45 BEND      4  5  6                  1.7750942     101.7054087
  46 BEND      4  5 13                  2.0031515     114.7721244
  47 BEND      4  5 14                  1.8897268     108.2733694
  48 BEND      5  4 11                  1.9078234     109.3102263
  49 BEND      5  4 12                  1.9476135     111.5900332
  50 BEND      5  6 16                  1.9967100     114.4030561
  51 BEND      5  6 15                  1.8900051     108.2893149
  52 BEND      6  2 20                  1.6756802      96.0094033
  53 BEND      6  5 13                  2.0149576     115.4485680
  54 BEND      6  5 14                  1.8801869     107.7267756
  55 BEND      7  1  8                  1.8981246     108.7545289
  56 BEND      7  1  9                  1.8990081     108.8051486
  57 BEND      8  1  9                  1.8992243     108.8175352
  58 BEND     10  3 17                  1.5636462      89.5903264
  59 BEND     11  4 12                  1.9104623     109.4614247
  60 BEND     13  5 14                  1.8929568     108.4584369
  61 BEND     15  6 16                  1.9155359     109.7521198
  62 BEND     18 17 19                  2.0136455     115.3733891
  63 BEND     18 17 20                  2.0448837     117.1632069
  64 BEND     19 17 20                  2.0289503     116.2502891
  65 TORSION   1  2  6 16               0.2419174      13.8608462
  66 TORSION   1  2  6 15              -1.9232938    -110.1966192
  67 TORSION   1  2  3 10              -0.1915460     -10.9747797
  68 TORSION   1  2  6  5               2.3816006     136.4556617
  69 TORSION   1  2  3  4              -2.7879565    -159.7381427
  70 TORSION   1  2 20 17              -2.0605855    -118.0628516
  71 TORSION   1  2  3 17               1.5263166      87.4514988
  72 TORSION   2  3  4  5               0.3058216      17.5222868
  73 TORSION   2  3  4 11              -1.7191371     -98.4993029
  74 TORSION   2  3  4 12               2.4085846     138.0017305
  75 TORSION   2  3 17 18               2.0809370     119.2289089
  76 TORSION   2 20 17 18              -2.0386765    -116.8075580
  77 TORSION   2 20 17 19               1.7628009     101.0010503
  78 TORSION   2  3 17 19              -1.8476450    -105.8622579
  79 TORSION   2 20 17  3              -0.0750407      -4.2995151
  80 TORSION   2  3 17 20               0.1154547       6.6150664
  81 TORSION   2  6  5 13               2.9118335     166.8357707
  82 TORSION   2  6  5 14              -1.2534318     -71.8163494
  83 TORSION   2  6  5  4               0.7315026      41.9120137
  84 TORSION   3  2  1  8              -2.2183817    -127.1039110
  85 TORSION   3  2  6 15               1.3984880      80.1274593
  86 TORSION   3  2  6 16              -2.7194861    -155.8150753
  87 TORSION   3  2 20 17               0.1100233       6.3038702
  88 TORSION   3  2  1  7              -0.1165912      -6.6801848
  89 TORSION   3  2  1  9               1.9801478     113.4541144
  90 TORSION   3  4  5  6              -0.6493527     -37.2051719
  91 TORSION   3  4  5 13              -2.8375421    -162.5791862
  92 TORSION   3  4  5 14               1.3284611      76.1152128
  93 TORSION   3  2  6  5              -0.5798029     -33.2202598
  94 TORSION   4  5  6 16               2.8774336     164.8648028
  95 TORSION   4  5  6 15              -1.2635703     -72.3972471
  96 TORSION   4  3  2 20               1.8594972     106.5413396
  97 TORSION   4  3  2  6               0.1730420       9.9145769
  98 TORSION   4  3 17 20              -1.8733590    -107.3355633
  99 TORSION   4  3 17 19               2.4467267     140.1871124
 100 TORSION   4  3 17 18               0.0921234       5.2782792
 101 TORSION   5  4  3 17               2.2843520     130.8837303
 102 TORSION   5  4  3 10              -2.2335730    -127.9743079
 103 TORSION   5  6  2 20              -2.2002803    -126.0667735
 104 TORSION   6  2  1  7              -3.0539055    -174.9758976
 105 TORSION   6  5  4 11               1.3862035      79.4236084
 106 TORSION   6  5  4 12              -2.7812868    -159.3559975
 107 TORSION   6  2 20 17               2.0458747     117.2199860
 108 TORSION   6  2  3 17              -1.7958702    -102.8957815
 109 TORSION   6  2  3 10               2.7694525     158.6779399
 110 TORSION   6  2  1  8               1.1274893      64.6003762
 111 TORSION   6  2  1  9              -0.9571665     -54.8415983
 112 TORSION   7  1  2 20               1.4983612      85.8497730
 113 TORSION   8  1  2 20              -0.6034293     -34.5739532
 114 TORSION   9  1  2 20              -2.6880850    -154.0159277
 115 TORSION  10  3  4 11               2.0246535     116.0041024
 116 TORSION  10  3  4 12              -0.1308101      -7.4948642
 117 TORSION  10  3  2 20              -1.8272777    -104.6952974
 118 TORSION  10  3 17 20               2.1886123     125.3982500
 119 TORSION  10  3 17 19               0.2255127      12.9209257
 120 TORSION  10  3 17 18              -2.1290906    -121.9879075
 121 TORSION  11  4  5 14              -2.9191680    -167.2560068
 122 TORSION  11  4  5 13              -0.8019859     -45.9504058
 123 TORSION  11  4  3 17               0.2593933      14.8621406
 124 TORSION  12  4  5 14              -0.8034730     -46.0356128
 125 TORSION  12  4  5 13               1.3137091      75.2699882
 126 TORSION  12  4  3 17              -1.8960703    -108.6368260
 127 TORSION  13  5  6 15               0.9167605      52.5265099
 128 TORSION  13  5  6 16              -1.2254208     -70.2114402
 129 TORSION  14  5  6 15               3.0346806     173.8743898
 130 TORSION  14  5  6 16               0.8924992      51.1364397
 131 TORSION  15  6  2 20              -0.2219894     -12.7190545
 132 TORSION  16  6  2 20               1.9432219     111.3384109
 133 TORSION  17  3  2 20              -0.1094150      -6.2690188

     ------------------------------------------
     THE POINT GROUP IS C1 , NAXIS= 0, ORDER= 1
     ------------------------------------------

     DIMENSIONS OF THE SYMMETRY SUBSPACES ARE
 A   =   48

 ..... DONE SETTING UP THE RUN .....
 STEP CPU TIME =     0.09 TOTAL CPU TIME =          0.1 (      0.0 MIN)
 TOTAL WALL CLOCK TIME=          0.1 SECONDS, CPU UTILIZATION IS    81.82%


          -----------------------------
          STATIONARY POINT LOCATION RUN
          -----------------------------


           ** GEOMETRY CONSTRAINTS ARE BEING APPLIED. **

          TRANSFORMING DISPLACEMENT FROM INTERNALS TO CARTESIANS
          THE ROOT MEAN SQUARE ERROR IN ITERATION   1 IS   0.00000206
          THE ROOT MEAN SQUARE ERROR IN ITERATION   2 IS   0.00000000
 WARNING! THE RADIUS IN CARTESIANS IS    0.00791
 OBTAINING INITIAL HESSIAN, HESS=CALC    

     ---------------------------------
     HESSIAN MATRIX CONTROL PARAMETERS
     ---------------------------------
     METHOD=ANALYTIC   NVIB  =       2   VIBSIZ= 0.01000
     RDHESS=       F   PURIFY=       F   PRTIFC=       F
     VIBANL=       F   DECOMP=       F   PROJCT=       F
     SCLFAC= 1.00000   PRTSCN=       F   NPRT  =       0
     PULCOR=       F   NPUN  =       0   REDOVB=       T
     HSSTYP=GENERAL 
 Old integral subroutine is used

     ------------------------------
     CPHF RESPONSE SOLUTION OPTIONS
     ------------------------------
     POLAR  =       F     NWORD  =       0
     CPHF   =AO      

          ********************
          1 ELECTRON INTEGRALS
          ********************
 ...... END OF ONE-ELECTRON INTEGRALS ......
 STEP CPU TIME =     0.04 TOTAL CPU TIME =          0.1 (      0.0 MIN)
 TOTAL WALL CLOCK TIME=          0.2 SECONDS, CPU UTILIZATION IS    86.67%

          -------------
          GUESS OPTIONS
          -------------
          GUESS =HUCKEL            NORB  =       0          NORDER=       0
          MIX   =       F          PRTMO =       F          PUNMO =       F
          TOLZ  = 1.0E-08          TOLE  = 1.0E-05
          SYMDEN=       F          PURIFY=       F

 INITIAL GUESS ORBITALS GENERATED BY HUCKEL   ROUTINE.
 HUCKEL GUESS REQUIRES     39252 WORDS.

 SYMMETRIES FOR INITIAL GUESS ORBITALS FOLLOW.   BOTH SET(S).
    27 ORBITALS ARE OCCUPIED (    7 CORE ORBITALS).
     8=A        9=A       10=A       11=A       12=A       13=A       14=A   
    15=A       16=A       17=A       18=A       19=A       20=A       21=A   
    22=A       23=A       24=A       25=A       26=A       27=A       28=A   
    29=A       30=A       31=A       32=A       33=A       34=A       35=A   
    36=A       37=A   
 ...... END OF INITIAL ORBITAL SELECTION ......
 STEP CPU TIME =     0.02 TOTAL CPU TIME =          0.2 (      0.0 MIN)
 TOTAL WALL CLOCK TIME=          0.2 SECONDS, CPU UTILIZATION IS    93.75%

                    ----------------------
                    AO INTEGRAL TECHNOLOGY
                    ----------------------
     S,P,L SHELL ROTATED AXIS INTEGRALS, REPROGRAMMED BY
        KAZUYA ISHIMURA (IMS) AND JOSE SIERRA (SYNSTAR).
     S,P,D,L SHELL ROTATED AXIS INTEGRALS PROGRAMMED BY
        KAZUYA ISHIMURA (INSTITUTE FOR MOLECULAR SCIENCE).
     S,P,D,F,G SHELL TO TOTAL QUARTET ANGULAR MOMENTUM SUM 5,
        ERIC PROGRAM BY GRAHAM FLETCHER (ELORET AND NASA ADVANCED
        SUPERCOMPUTING DIVISION, AMES RESEARCH CENTER).
     S,P,D,F,G,L SHELL GENERAL RYS QUADRATURE PROGRAMMED BY
        MICHEL DUPUIS (PACIFIC NORTHWEST NATIONAL LABORATORY).

          --------------------
          2 ELECTRON INTEGRALS
          --------------------

 THE -PK- OPTION IS OFF, THE INTEGRALS ARE NOT IN SUPERMATRIX FORM.
 STORING   15000 INTEGRALS/RECORD ON DISK, USING 12 BYTES/INTEGRAL.
 TWO ELECTRON INTEGRAL EVALUATION REQUIRES   89734 WORDS OF MEMORY.
 SCHWARZ INEQUALITY OVERHEAD:      1167 INTEGRALS, T=        0.01
 II,JST,KST,LST =  1  1  1  1 NREC =         1 INTLOC =    1
 II,JST,KST,LST =  2  1  1  1 NREC =         1 INTLOC =    2
 II,JST,KST,LST =  3  1  1  1 NREC =         1 INTLOC =   34
 II,JST,KST,LST =  4  1  1  1 NREC =         1 INTLOC =  144
 II,JST,KST,LST =  5  1  1  1 NREC =         1 INTLOC = 1366
 II,JST,KST,LST =  6  1  1  1 NREC =         1 INTLOC = 1963
 II,JST,KST,LST =  7  1  1  1 NREC =         1 INTLOC = 6853
 II,JST,KST,LST =  8  1  1  1 NREC =         1 INTLOC = 8523
 II,JST,KST,LST =  9  1  1  1 NREC =         2 INTLOC = 5869
 II,JST,KST,LST = 10  1  1  1 NREC =         2 INTLOC = 9437
 II,JST,KST,LST = 11  1  1  1 NREC =         4 INTLOC = 4447
 II,JST,KST,LST = 12  1  1  1 NREC =         4 INTLOC =11594
 II,JST,KST,LST = 13  1  1  1 NREC =         7 INTLOC =11739
 II,JST,KST,LST = 14  1  1  1 NREC =         8 INTLOC =11009
 II,JST,KST,LST = 15  1  1  1 NREC =         9 INTLOC =11589
 II,JST,KST,LST = 16  1  1  1 NREC =        10 INTLOC =13931
 II,JST,KST,LST = 17  1  1  1 NREC =        12 INTLOC = 3103
 II,JST,KST,LST = 18  1  1  1 NREC =        13 INTLOC = 8775
 II,JST,KST,LST = 19  1  1  1 NREC =        15 INTLOC = 1212
 II,JST,KST,LST = 20  1  1  1 NREC =        16 INTLOC =10456
 II,JST,KST,LST = 21  1  1  1 NREC =        18 INTLOC = 7284
 II,JST,KST,LST = 22  1  1  1 NREC =        20 INTLOC = 6370
 II,JST,KST,LST = 23  1  1  1 NREC =        22 INTLOC = 7749
 II,JST,KST,LST = 24  1  1  1 NREC =        24 INTLOC = 2783
 II,JST,KST,LST = 25  1  1  1 NREC =        34 INTLOC =11307
 II,JST,KST,LST = 26  1  1  1 NREC =        37 INTLOC =12008
 II,JST,KST,LST = 27  1  1  1 NREC =        40 INTLOC =14933
 SCHWARZ INEQUALITY TEST SKIPPED        8508 INTEGRAL BLOCKS.
 TOTAL NUMBER OF NONZERO TWO-ELECTRON INTEGRALS =              653794
         44 INTEGRAL RECORDS WERE STORED ON DISK FILE  8.
  ...... END OF TWO-ELECTRON INTEGRALS .....
 STEP CPU TIME =     0.17 TOTAL CPU TIME =          0.3 (      0.0 MIN)
 TOTAL WALL CLOCK TIME=          0.3 SECONDS, CPU UTILIZATION IS    91.43%

          --------------------------
                 RHF SCF CALCULATION
          --------------------------

     NUCLEAR ENERGY =       301.8294807265
     MAXIT =   30     NPUNCH=    2
     EXTRAP=T  DAMP=F  SHIFT=F  RSTRCT=F  DIIS=F  DEM=F  SOSCF=T
     DENSITY MATRIX CONV=  1.00E-05
     SOSCF WILL OPTIMIZE     567 ORBITAL ROTATIONS, SOGTOL=   0.250
     MEMORY REQUIRED FOR RHF ITERS=     49068 WORDS.

 ITER EX DEM     TOTAL ENERGY        E CHANGE  DENSITY CHANGE     ORB. GRAD
   1  0  0     -255.6971990900  -255.6971990900   0.306924503   0.000000000
          ---------------START SECOND ORDER SCF---------------
   2  1  0     -256.0616799237    -0.3644808337   0.104495830   0.035630207
   3  2  0     -256.0837635415    -0.0220836178   0.047428394   0.019694169
   4  3  0     -256.0884193969    -0.0046558553   0.010811792   0.003418886
   5  4  0     -256.0887797373    -0.0003603404   0.013437506   0.002349572
   6  5  0     -256.0889296186    -0.0001498813   0.012211380   0.001260745
   7  6  0     -256.0889951767    -0.0000655581   0.002726153   0.000385513
   8  7  0     -256.0890038725    -0.0000086958   0.000834700   0.000141241
   9  8  0     -256.0890051063    -0.0000012338   0.000261828   0.000063850
  10  9  0     -256.0890052256    -0.0000001193   0.000075350   0.000017713
  11 10  0     -256.0890052415    -0.0000000159   0.000022622   0.000008338
  12 11  0     -256.0890052429    -0.0000000014   0.000008116   0.000002373
  13 12  0     -256.0890052431    -0.0000000001   0.000001639   0.000000412

          -----------------
          DENSITY CONVERGED
          -----------------
     TIME TO FORM FOCK OPERATORS=       0.2 SECONDS (       0.0 SEC/ITER)
     TIME TO SOLVE SCF EQUATIONS=       0.0 SECONDS (       0.0 SEC/ITER)

 FINAL RHF ENERGY IS     -256.0890052431 AFTER  13 ITERATIONS

          ------------
          EIGENVECTORS
          ------------

                      1          2          3          4          5
                  -11.1392   -11.0826   -11.0771   -11.0594   -11.0493
                     A          A          A          A          A   
    1  C  1  S   -0.001509   0.991984   0.001617  -0.000031   0.000129
    2  C  1  S   -0.005560   0.037371   0.000239  -0.000048  -0.000061
    3  C  1  X   -0.003486   0.000425   0.000041   0.000011  -0.000042
    4  C  1  Y    0.001307   0.000020   0.000068   0.000019   0.000041
    5  C  1  Z    0.001637  -0.000163  -0.000065   0.000065   0.000021
    6  C  2  S    0.992335   0.002457   0.001988   0.000934   0.000488
    7  C  2  S    0.035072  -0.005959  -0.006183  -0.000101   0.000268
    8  C  2  X    0.001258   0.003788  -0.002421  -0.000380  -0.000007
    9  C  2  Y   -0.001034  -0.001346  -0.002644   0.000010  -0.000019
   10  C  2  Z    0.000230  -0.001963   0.002694  -0.000144   0.000073
   11  C  3  S    0.002250  -0.000136  -0.000380  -0.000636  -0.002210
   12  C  3  S   -0.007248   0.000158   0.000221   0.000192  -0.005884
   13  C  3  X    0.002189  -0.000103   0.000046   0.000010  -0.004048
   14  C  3  Y   -0.003782  -0.000005   0.000054  -0.000137  -0.000397
   15  C  3  Z    0.000921   0.000098   0.000070  -0.000084   0.001304
   16  C  4  S   -0.000394  -0.000115  -0.002034  -0.012092   0.991898
   17  C  4  S    0.000151  -0.000046  -0.000071  -0.006190   0.037026
   18  C  4  X    0.000083   0.000042   0.000301  -0.000477  -0.000410
   19  C  4  Y   -0.000121  -0.000026  -0.000023  -0.004191   0.000472
   20  C  4  Z    0.000078   0.000026   0.000240   0.000512  -0.000157
   21  C  5  S   -0.000771   0.000038  -0.005806   0.991861   0.013046
   22  C  5  S   -0.000022  -0.000007  -0.006071   0.037196  -0.005306
   23  C  5  X    0.000404  -0.000005   0.003822  -0.000770   0.000206
   24  C  5  Y    0.000214   0.000011  -0.001148  -0.000221   0.004242
   25  C  5  Z   -0.000343   0.000010   0.001628   0.000350  -0.000523
   26  C  6  S   -0.001052  -0.001611   0.991888   0.006727   0.002240
   27  C  6  S   -0.005785   0.000068   0.037590  -0.005616   0.000008
   28  C  6  X    0.002433  -0.000069   0.000079  -0.003974  -0.000048
   29  C  6  Y    0.002291   0.000100  -0.001017   0.000826   0.000384
   30  C  6  Z   -0.002477   0.000045   0.000618  -0.001492   0.000012
   31  H  7  S    0.000025  -0.006684  -0.000059  -0.000001  -0.000026
   32  H  8  S   -0.000056  -0.006705  -0.000059  -0.000003   0.000001
   33  H  9  S   -0.000121  -0.006776  -0.000045   0.000014  -0.000003
   34  H 10  S    0.000072  -0.000069  -0.000085  -0.000010   0.000069
   35  H 11  S    0.000001   0.000005   0.000086   0.000099  -0.006759
   36  H 12  S   -0.000065  -0.000011  -0.000148   0.000195  -0.006695
   37  H 13  S   -0.000207   0.000004   0.000168  -0.006645   0.000035
   38  H 14  S   -0.000193   0.000029   0.000051  -0.006784  -0.000061
   39  H 15  S   -0.000042   0.000036  -0.006759  -0.000040  -0.000009
   40  H 16  S    0.000056  -0.000114  -0.006666   0.000079  -0.000176
   41  B 17  S    0.000007  -0.000004  -0.000006   0.000004   0.000013
   42  B 17  S    0.000113   0.000018   0.000031  -0.000033  -0.000001
   43  B 17  X    0.000015   0.000003   0.000017  -0.000014  -0.000084
   44  B 17  Y   -0.000108   0.000017   0.000030  -0.000001   0.000052
   45  B 17  Z   -0.000082  -0.000005  -0.000008  -0.000041   0.000047
   46  H 18  S   -0.000062  -0.000005  -0.000002  -0.000005   0.000149
   47  H 19  S   -0.000015   0.000016   0.000003   0.000012  -0.000023
   48  H 20  S   -0.001801  -0.000050   0.000048  -0.000022   0.000015

                      6          7          8          9         10
                  -10.9969    -7.3823    -1.1346    -0.9976    -0.9351
                     A          A          A          A          A   
    1  C  1  S    0.000155  -0.000004  -0.053538  -0.155554  -0.027667
    2  C  1  S    0.000278   0.000026   0.144050   0.436523   0.079687
    3  C  1  X    0.000078   0.000024   0.041354   0.048897   0.001059
    4  C  1  Y   -0.000064  -0.000015  -0.012017  -0.014337   0.023632
    5  C  1  Z   -0.000028   0.000017  -0.018654  -0.019839  -0.011971
    6  C  2  S   -0.001585   0.000029  -0.138832  -0.103061   0.006864
    7  C  2  S   -0.008138   0.000074   0.360850   0.291883  -0.017514
    8  C  2  X   -0.002306  -0.000032   0.066443  -0.103357  -0.027766
    9  C  2  Y    0.004167   0.000003  -0.015165   0.006450   0.175022
   10  C  2  Z   -0.001364  -0.000121  -0.004454   0.065614  -0.082514
   11  C  3  S    0.991959   0.000533  -0.103338  -0.020027   0.138906
   12  C  3  S    0.037040  -0.003012   0.252453   0.056003  -0.383090
   13  C  3  X   -0.000701   0.001052  -0.000792  -0.080828  -0.026861
   14  C  3  Y    0.002775   0.002097   0.077238   0.032961  -0.024820
   15  C  3  Z   -0.000109   0.001785  -0.029382   0.012291   0.006853
   16  C  4  S    0.003180   0.000026  -0.082820   0.086610   0.105928
   17  C  4  S   -0.005637   0.000215   0.210903  -0.238528  -0.305601
   18  C  4  X    0.003969   0.000136  -0.041612  -0.008950   0.057837
   19  C  4  Y    0.000307   0.000123   0.040780  -0.052924   0.039948
   20  C  4  Z   -0.001429  -0.000077   0.001855   0.012397  -0.028866
   21  C  5  S    0.000751   0.000004  -0.093125   0.111088  -0.055163
   22  C  5  S    0.000149  -0.000053   0.237490  -0.308910   0.158379
   23  C  5  X    0.000251  -0.000000  -0.057925   0.019964  -0.057542
   24  C  5  Y    0.000014   0.000044  -0.027110   0.034393   0.090357
   25  C  5  Z   -0.000146  -0.000055  -0.001858   0.000607  -0.040032
   26  C  6  S    0.000453  -0.000008  -0.112548   0.034758  -0.145578
   27  C  6  S    0.000227   0.000030   0.292089  -0.093632   0.423774
   28  C  6  X   -0.000086  -0.000027   0.004844  -0.087092   0.013609
   29  C  6  Y    0.000139  -0.000021  -0.054989   0.003574   0.019651
   30  C  6  Z    0.000079  -0.000031   0.052540   0.006949   0.006988
   31  H  7  S   -0.000110  -0.000073   0.024947   0.103867   0.008298
   32  H  8  S   -0.000022   0.000089   0.024457   0.101091   0.028611
   33  H  9  S   -0.000009  -0.000004   0.027260   0.107359   0.031038
   34  H 10  S   -0.006576  -0.000610   0.042144   0.022624  -0.106525
   35  H 11  S   -0.000004  -0.000731   0.037054  -0.055497  -0.075972
   36  H 12  S    0.000018  -0.000024   0.032787  -0.054135  -0.082635
   37  H 13  S   -0.000148   0.000002   0.036900  -0.071578   0.046614
   38  H 14  S   -0.000102  -0.000008   0.046406  -0.070556   0.041490
   39  H 15  S   -0.000013  -0.000030   0.052526  -0.025690   0.107479
   40  H 16  S   -0.000107   0.000002   0.048408  -0.014881   0.129263
   41  B 17  S    0.000410   0.991084  -0.007590  -0.003254   0.017448
   42  B 17  S   -0.002696   0.035270   0.015536   0.007600  -0.038169
   43  B 17  X   -0.001070   0.000780   0.003677  -0.001471  -0.010937
   44  B 17  Y   -0.002001  -0.001483   0.006261   0.004360  -0.009125
   45  B 17  Z   -0.001430   0.000778   0.004585   0.002315  -0.012099
   46  H 18  S    0.000159  -0.006347   0.002920  -0.000353  -0.011422
   47  H 19  S    0.000280  -0.006383   0.002490   0.002400  -0.010487
   48  H 20  S    0.000012  -0.002542   0.007802   0.010843  -0.003301

                     11         12         13         14         15
                   -0.8839    -0.7642    -0.6882    -0.6382    -0.6291
                     A          A          A          A          A   
    1  C  1  S   -0.136624   0.014546   0.025528   0.022155  -0.023776
    2  C  1  S    0.403944  -0.046435  -0.082429  -0.078221   0.082738
    3  C  1  X   -0.045945   0.030177   0.143314   0.182598  -0.166722
    4  C  1  Y    0.026491  -0.055857   0.010167   0.037671   0.155562
    5  C  1  Z    0.026014   0.022199  -0.093302  -0.055793   0.177657
    6  C  2  S    0.075154  -0.025043  -0.107837  -0.016979   0.064675
    7  C  2  S   -0.226581   0.076988   0.365128   0.069046  -0.230180
    8  C  2  X   -0.159583   0.012566   0.033902  -0.109864   0.251782
    9  C  2  Y    0.072347  -0.150193   0.116911   0.179548   0.015861
   10  C  2  Z    0.062445   0.122563  -0.037767   0.084796  -0.013455
   11  C  3  S    0.070770  -0.039902   0.090201  -0.008583  -0.034134
   12  C  3  S   -0.194282   0.112313  -0.297468   0.039933   0.106599
   13  C  3  X    0.077258  -0.141637   0.028612   0.028854   0.178347
   14  C  3  Y   -0.062899   0.066768   0.191788  -0.090206   0.060640
   15  C  3  Z    0.014208   0.060120  -0.113558   0.175330   0.027862
   16  C  4  S   -0.091939   0.113453  -0.025962  -0.019655   0.006926
   17  C  4  S    0.270733  -0.356243   0.080145   0.065866  -0.024194
   18  C  4  X    0.076716  -0.023812   0.068799   0.114681  -0.186157
   19  C  4  Y    0.046191   0.133136   0.085803  -0.096735   0.069181
   20  C  4  Z   -0.016152   0.033411  -0.020774   0.204629   0.140262
   21  C  5  S   -0.097559  -0.119991  -0.000429   0.011647   0.016396
   22  C  5  S    0.291171   0.380414   0.001335  -0.038575  -0.054973
   23  C  5  X    0.066994   0.066553   0.001492   0.058553  -0.235447
   24  C  5  Y   -0.051123   0.120423  -0.114915   0.106001  -0.013279
   25  C  5  Z    0.022812   0.053665   0.101754   0.192263   0.145148
   26  C  6  S    0.066984   0.071173   0.057253  -0.009908  -0.016003
   27  C  6  S   -0.198015  -0.226107  -0.192066   0.034135   0.049280
   28  C  6  X    0.082164   0.136166  -0.109225  -0.129816   0.075196
   29  C  6  Y    0.031180  -0.010238  -0.163754   0.273716  -0.008822
   30  C  6  Z   -0.006379   0.085616   0.192563   0.138818   0.135193
   31  H  7  S    0.124020   0.012401  -0.119891  -0.120297   0.077215
   32  H  8  S    0.126031  -0.045639  -0.052685  -0.087636   0.046416
   33  H  9  S    0.134851  -0.035523  -0.043248   0.000558   0.189041
   34  H 10  S   -0.050656   0.074600  -0.258898   0.140627   0.004138
   35  H 11  S    0.078948  -0.175557   0.015976  -0.066056  -0.149089
   36  H 12  S    0.093075  -0.146270   0.031048   0.204719  -0.053206
   37  H 13  S    0.099143   0.164712  -0.058500  -0.040575  -0.221215
   38  H 14  S    0.087011   0.194314   0.030475   0.162521   0.057530
   39  H 15  S   -0.061112  -0.127930  -0.152948  -0.144658  -0.083133
   40  H 16  S   -0.051202  -0.103685  -0.165145   0.236371   0.008794
   41  B 17  S    0.009695   0.000083   0.061053   0.015576   0.073651
   42  B 17  S   -0.022492  -0.000597  -0.149360  -0.041349  -0.187420
   43  B 17  X   -0.002894  -0.009660  -0.014633  -0.006590   0.001073
   44  B 17  Y   -0.008383   0.003051   0.010240  -0.008677   0.016621
   45  B 17  Z   -0.006937   0.010415  -0.033189   0.013318  -0.001885
   46  H 18  S   -0.003633  -0.011302  -0.064994  -0.026672  -0.102040
   47  H 19  S   -0.006335   0.005695  -0.080347  -0.008166  -0.100691
   48  H 20  S   -0.011037  -0.004088  -0.006909  -0.029245  -0.073634

                     16         17         18         19         20
                   -0.5993    -0.5635    -0.5512    -0.5305    -0.5014
                     A          A          A          A          A   
    1  C  1  S   -0.002403  -0.003676   0.002331   0.001128   0.007649
    2  C  1  S    0.008897   0.013230  -0.008270  -0.003985  -0.025759
    3  C  1  X   -0.064312  -0.307041   0.069006   0.081359  -0.144401
    4  C  1  Y    0.151044  -0.131431   0.426740   0.082393   0.152498
    5  C  1  Z   -0.093444  -0.378450  -0.200392   0.136163   0.146195
    6  C  2  S    0.007958   0.008189   0.003501  -0.001021  -0.014538
    7  C  2  S   -0.022560  -0.029380  -0.010932   0.006215   0.044207
    8  C  2  X    0.049446  -0.032824  -0.008204   0.019467   0.207477
    9  C  2  Y    0.109927  -0.037714   0.089957   0.047550  -0.257105
   10  C  2  Z   -0.139713  -0.145871  -0.050408  -0.051313  -0.081901
   11  C  3  S    0.010158  -0.015719  -0.046501   0.016959  -0.021331
   12  C  3  S   -0.020882   0.057330   0.169018  -0.059033   0.062331
   13  C  3  X    0.056939   0.023032   0.033346  -0.024983  -0.035122
   14  C  3  Y   -0.085815  -0.034582  -0.093908  -0.015850   0.206093
   15  C  3  Z   -0.099565  -0.005402   0.056666   0.124632  -0.256929
   16  C  4  S    0.013291   0.003389   0.015947   0.007915   0.006455
   17  C  4  S   -0.045720  -0.011368  -0.053161  -0.027695  -0.026565
   18  C  4  X   -0.085475   0.001613  -0.094445   0.157934   0.026665
   19  C  4  Y    0.008958   0.032511  -0.012560   0.147870  -0.129692
[...]
 19   H            X -0.00549965 -0.00445076 -0.00221841  0.45917288 -0.43243607
                   Y -0.00110414 -0.00109437 -0.00341379  0.39389296 -0.37132275
                   Z -0.01089870 -0.00728309 -0.00597704 -0.33907754  0.32066419
 20   H            X  0.00775828  0.00099415 -0.00181287  0.00063517 -0.00759884
                   Y  0.02794122  0.00687281 -0.00361097  0.00120588 -0.00190572
                   Z  0.01447922  0.00240517 -0.00333972  0.00098990  0.00667725

 TRANS. SAYVETZ    X  0.00000022  0.00000005 -0.00000053  0.00000006  0.00000002
                   Y -0.00000066 -0.00000001 -0.00000016 -0.00000015  0.00000001
                   Z -0.00000057 -0.00000020  0.00000004  0.00000006 -0.00000000
               TOTAL  0.00000090  0.00000021  0.00000055  0.00000017  0.00000002

   ROT. SAYVETZ    X  0.00649095 -0.00414803 -0.00660555  0.00391544  0.02287638
                   Y -0.00283707 -0.00060590  0.00041929  0.00100671  0.00263636
                   Z -0.00387369  0.00245268  0.00338333 -0.00348414  0.02536713
               TOTAL  0.00807384  0.00485684  0.00743344  0.00533698  0.03426034

                           51          52          53          54          55
       FREQUENCY:      3565.90     3608.93     3619.43     3629.32     3720.89  
        SYMMETRY:         A           A           A           A           A   
    REDUCED MASS:      1.03936     1.06612     1.06711     1.06887     1.11105
    IR INTENSITY:      0.00934     0.06290     0.06213     0.01694     0.00722

  1   C            X  0.03345922 -0.00006436 -0.00004793 -0.00003140  0.00018358
                   Y -0.02286456 -0.00002515 -0.00002157  0.00028693  0.00020103
                   Z -0.03331158  0.00006240  0.00002767  0.00008424  0.00002358
  2   C            X -0.00252349  0.00044217  0.00016509  0.00112114 -0.00000475
                   Y  0.00091262  0.00008550 -0.00055715  0.00154675  0.00017797
                   Z  0.00111821 -0.00004113  0.00058254 -0.00160462 -0.00031830
  3   C            X -0.00005771  0.00125239  0.00010210  0.00018249 -0.00051886
                   Y  0.00030129 -0.00156697 -0.00033606 -0.00020780 -0.00185036
                   Z -0.00014637  0.00148930  0.00068182  0.00033661  0.00423697
  4   C            X -0.00009006 -0.05313556 -0.01138598 -0.00434593 -0.01779524
                   Y  0.00003962  0.04295324  0.01317862  0.00493211 -0.03388312
                   Z -0.00001271 -0.00571001 -0.00043189  0.00024214 -0.08232150
  5   C            X -0.00005130  0.01381096 -0.04783928 -0.01740454 -0.00487100
                   Y -0.00002473  0.00866920 -0.04482909 -0.01417952  0.00326618
                   Z  0.00002144 -0.00004635 -0.00075264 -0.00296140  0.01239745
  6   C            X -0.00005887 -0.00079018 -0.00524881  0.02386335  0.00038424
                   Y -0.00008992 -0.00012747  0.01652045 -0.04693453 -0.00031636
                   Z  0.00015203 -0.00039806 -0.01225975  0.04313852  0.00084067
  7   H            X -0.27781893  0.00019575  0.00007155  0.00019724 -0.00162828
                   Y -0.39438421  0.00052859  0.00003389  0.00068251 -0.00221566
                   Z  0.19678887 -0.00019907 -0.00008185 -0.00015911  0.00119839
  8   H            X -0.29785404  0.00043836 -0.00000029  0.00095780 -0.00028555
                   Y  0.27435607 -0.00050708  0.00002122 -0.00108070  0.00029664
                   Z -0.30914128  0.00024384  0.00004032  0.00124421 -0.00040762
  9   H            X  0.21074134 -0.00014953 -0.00009266 -0.00079106 -0.00048448
                   Y  0.37780912 -0.00023146 -0.00026305 -0.00113533 -0.00098833
                   Z  0.49109204 -0.00030826 -0.00038298 -0.00146771 -0.00128563
 10   H            X -0.00098635  0.00744616  0.00368336  0.00180852  0.01082196
                   Y -0.00220589  0.01484374  0.00581961  0.00502570  0.02290852
                   Z  0.00417872 -0.02321787 -0.01043772 -0.00858933 -0.04219706
 11   H            X  0.00062419  0.21003799  0.05391000  0.02046322 -0.20289280
                   Y -0.00090421 -0.46102867 -0.11454691 -0.04353288  0.43155953
                   Z -0.00100756 -0.45497290 -0.11654455 -0.04399025  0.41991194
 12   H            X  0.00011533  0.38217739  0.07937553  0.02550596  0.41039131
                   Y -0.00001343 -0.02172203 -0.00433299 -0.00087192 -0.02967247
                   Z  0.00049923  0.51660665  0.11028253  0.03507192  0.54600838
 13   H            X  0.00061959 -0.10784506  0.37631966  0.11310700  0.07391747
                   Y  0.00004882 -0.01300863  0.04540147  0.01218680  0.00866568
                   Z -0.00073374  0.12723800 -0.45168127 -0.13596860 -0.08586568
 14   H            X  0.00009064 -0.03896940  0.16299106  0.05312381 -0.01714800
                   Y  0.00031987 -0.11195530  0.44416714  0.15342882 -0.04463633
                   Z  0.00033061 -0.11413414  0.47075587  0.15978312 -0.05188838
 15   H            X  0.00007399 -0.00020693  0.02236403 -0.06424956 -0.00140803
                   Y -0.00006007  0.00126666  0.04130215 -0.13507384 -0.00206655
                   Z -0.00131680  0.00469650  0.17774740 -0.58062885 -0.00941387
 16   H            X -0.00069540  0.00195409  0.06650189 -0.19519267 -0.00039706
                   Y  0.00211131 -0.00401181 -0.22615967  0.65677850  0.00266301
                   Z  0.00029910 -0.00099201 -0.03576242  0.10875440  0.00048118
 17   B            X -0.00012582  0.00022461  0.00004605  0.00035647  0.00005221
                   Y  0.00006689  0.00011932  0.00002628  0.00007799 -0.00005301
                   Z  0.00006443  0.00017677  0.00008310 -0.00004107 -0.00023733
 18   H            X  0.00008721  0.00054598  0.00022429 -0.00118182 -0.00117290
                   Y -0.00010080 -0.00010032 -0.00005629 -0.00006501  0.00009730
                   Z  0.00017734 -0.00068989 -0.00035433  0.00061780  0.00096199
 19   H            X  0.00032823  0.00026808 -0.00005504 -0.00066210 -0.00076593
                   Y  0.00024844  0.00027161 -0.00012055 -0.00008263 -0.00038193
                   Z -0.00037056 -0.00041646 -0.00008365 -0.00006918  0.00064581
 20   H            X  0.00077395 -0.00011725 -0.00072552  0.00271402 -0.00016144
                   Y  0.00072830 -0.00085139 -0.00051025  0.00247728  0.00018644
                   Z  0.00164943 -0.00049175  0.00028978 -0.00131988  0.00006725

 TRANS. SAYVETZ    X  0.00000041 -0.00000011 -0.00000004  0.00000025  0.00000000
                   Y -0.00000002  0.00000007  0.00000005 -0.00000045 -0.00000002
                   Z -0.00000045  0.00000016  0.00000009  0.00000006 -0.00000007
               TOTAL  0.00000061  0.00000020  0.00000012  0.00000052  0.00000007

   ROT. SAYVETZ    X  0.00050248 -0.00013753 -0.00053176  0.00040470  0.00049052
                   Y  0.00004300 -0.00056017  0.00032954 -0.00016468 -0.00035141
                   Z -0.00034594  0.00028292 -0.00002838 -0.00083116 -0.00012012
               TOTAL  0.00061156  0.00064245  0.00062623  0.00093900  0.00061524

                           56          57          58          59          60
       FREQUENCY:      3737.02     3739.10     3739.65     3747.30     3769.02  
        SYMMETRY:         A           A           A           A           A   
    REDUCED MASS:      1.09722     1.11173     1.10744     1.10977     1.11044
    IR INTENSITY:      0.47003     0.07524     0.02635     0.00316     0.00890

  1   C            X  0.00573917 -0.01311021 -0.05951922 -0.00302049  0.00949562
                   Y  0.00403707 -0.01079430 -0.04685873 -0.00082730 -0.06876207
                   Z  0.00542461 -0.00972828 -0.04434953 -0.00333384  0.05984596
  2   C            X  0.00164920 -0.00053437  0.00087653 -0.00020858 -0.00029822
                   Y -0.00264478  0.00035200 -0.00091666 -0.00007878  0.00056027
                   Z  0.00121951 -0.00059626 -0.00041446  0.00036212  0.00001998
  3   C            X  0.01952935 -0.00466072  0.00310845  0.00085212 -0.00050156
                   Y  0.03860668 -0.00918397  0.00590475  0.00156604 -0.00042316
                   Z -0.06980450  0.01659993 -0.01053544 -0.00274080  0.00088885
  4   C            X -0.00565841  0.00001248 -0.00055314 -0.00114356  0.00000199
                   Y -0.00235989 -0.00490139  0.00079554 -0.00203681 -0.00000871
                   Z -0.00526778 -0.00877766  0.00136743 -0.00462269 -0.00017446
  5   C            X  0.00491327  0.02336751 -0.00513760  0.00840722  0.00000388
                   Y -0.00712064 -0.02611056  0.00564333 -0.01128751 -0.00001882
                   Z -0.01753832 -0.07310422  0.01596656 -0.02938377 -0.00009937
  6   C            X -0.00078267 -0.00364062  0.00055445  0.00742168  0.00038713
                   Y  0.00735278  0.02281898 -0.00168065 -0.05720554 -0.00151472
                   Z  0.00863849  0.02302834 -0.00132247 -0.06252530 -0.00166534
  7   H            X -0.02075332  0.05987785  0.26452913  0.00519924  0.32875843
                   Y -0.02977327  0.08523919  0.37801167  0.00847981  0.46504512
                   Z  0.01556321 -0.04397424 -0.19482741 -0.00413668 -0.23221231
  8   H            X -0.02626256  0.04547922  0.21298076  0.01915550 -0.41643451
                   Y  0.02513296 -0.04365556 -0.20391256 -0.01784989  0.38562419
                   Z -0.02587230  0.04703009  0.22234732  0.01997143 -0.43251028
  9   H            X -0.02287158  0.04885438  0.21808195  0.01031296 -0.02111090
                   Y -0.04120313  0.08711672  0.38813406  0.01916585 -0.03963074
                   Z -0.05377041  0.11385768  0.50705389  0.02496134 -0.04565034
 10   H            X -0.22268614  0.05180143 -0.03333216 -0.00926726  0.00235918
                   Y -0.41584656  0.09751031 -0.06227609 -0.01678766  0.00503069
                   Z  0.78279002 -0.18300031  0.11782339  0.03013528 -0.00923297
 11   H            X -0.01194808 -0.02837600  0.00511230 -0.01287516 -0.00017265
                   Y  0.02363287  0.06271712 -0.01138698  0.02790907  0.00065159
                   Z  0.02133117  0.05685838 -0.01027764  0.02515330  0.00056078
 12   H            X  0.04505604  0.03584081 -0.00324790  0.02300674  0.00019205
                   Y -0.00254375 -0.00348407  0.00053101 -0.00171796 -0.00006317
                   Z  0.05595492  0.05029348 -0.00540733  0.03111259  0.00061327
 13   H            X -0.09468135 -0.40168850  0.08805068 -0.15820839 -0.00033770
                   Y -0.01253634 -0.05331000  0.01165867 -0.01974841  0.00000946
                   Z  0.11175861  0.47556721 -0.10413948  0.18612857  0.00039962
 14   H            X  0.03350281  0.13290018 -0.02915638  0.06261783  0.00039297
                   Y  0.09277611  0.36322077 -0.07908154  0.15790913  0.00071952
                   Z  0.09591712  0.37887468 -0.08268312  0.16592902  0.00079239
 15   H            X -0.00915720 -0.02436245  0.00082631  0.07682148  0.00203183
                   Y -0.01939685 -0.05280703  0.00315478  0.14317173  0.00376764
                   Z -0.08559787 -0.23326984  0.01214728  0.65259659  0.01506878
 16   H            X  0.02000586  0.06282360 -0.00428141 -0.15996289 -0.00400041
                   Y -0.06930002 -0.21280685  0.01554495  0.53363445  0.01371638
                   Z -0.01090109 -0.03276122  0.00201964  0.08350898  0.00204579
 17   B            X  0.00044487 -0.00005457 -0.00002818 -0.00009595  0.00012602
                   Y -0.00041681  0.00009182  0.00011144  0.00001982 -0.00010383
                   Z  0.00070220 -0.00019067  0.00018615 -0.00011564 -0.00001108
 18   H            X  0.00047721 -0.00039669  0.00058057  0.00031250 -0.00004421
                   Y -0.00037038  0.00016793  0.00008068  0.00001979  0.00007614
                   Z -0.00012647  0.00034104 -0.00022521  0.00005560 -0.00031912
 19   H            X -0.00162235  0.00019020 -0.00007153 -0.00035280 -0.00032744
                   Y -0.00084635  0.00015594 -0.00026213 -0.00038672  0.00004945
                   Z  0.00036423  0.00004118  0.00013128  0.00083827 -0.00004036
 20   H            X  0.00376766  0.00057681  0.00262915 -0.00226560 -0.00090257
                   Y  0.00390149  0.00017143  0.00047722 -0.00208665  0.00160688
                   Z  0.00564925 -0.00173629  0.00179843  0.00241415  0.00029822

 TRANS. SAYVETZ    X  0.00000003  0.00000003  0.00000001  0.00000004 -0.00000005
                   Y -0.00000024 -0.00000004 -0.00000008  0.00000001 -0.00000006
                   Z -0.00000008 -0.00000007  0.00000007  0.00000000 -0.00000003
               TOTAL  0.00000025  0.00000009  0.00000011  0.00000004  0.00000008

   ROT. SAYVETZ    X -0.00687160  0.00169918 -0.00089523 -0.00008792  0.00029057
                   Y  0.00725277 -0.00191906  0.00109158  0.00076892  0.00002063
                   Z  0.00059985 -0.00049814 -0.00021517  0.00068852 -0.00006061
               TOTAL  0.01000906  0.00261115  0.00142803  0.00103587  0.00029754

 REFERENCE ON SAYVETZ CONDITIONS - A. SAYVETZ, J.CHEM.PHYS., 7, 383-389(1939).

 NOTE - THE MODES J,K ARE ORTHONORMALIZED ACCORDING TO
 SUM ON I   M(I) * (X(I,J)*X(I,K) + Y(I,J)*Y(I,K) + Z(I,J)*Z(I,K)) = DELTA(J,K)

  MODE FREQ(CM**-1)  SYMMETRY  RED. MASS  IR INTENS.
     1    1100.588    A        2.130058    3.750124
     2     537.601    A        1.218723    6.655008
     3       0.001    A        4.805564    0.000000
     4       0.005    A        4.805533    0.000000
     5       0.006    A        4.805540    0.000000
     6      42.092    A        3.057597    0.010496
     7      80.198    A        2.491979    0.000848
     8     125.004    A        2.189661    0.030582
     9     129.398    A        2.501033    0.039012
    10     239.436    A        1.196006    0.016085
    11     267.963    A        1.817519    0.016403
    12     328.945    A        2.610429    0.007375
    13     359.800    A        2.441973    0.073800
    14     429.323    A        3.079252    0.015912
    15     504.249    A        2.567605    0.254969
    16     676.451    A        2.505708    1.146671
    17     716.425    A        1.297638    0.004621
    18     747.835    A        1.721917    0.125296
    19     784.269    A        1.523742    0.348370
    20     904.255    A        1.286669    0.503657
    21     942.114    A        1.846402    0.034945
    22     990.817    A        2.004801    0.010918
    23    1038.434    A        1.380069    1.023318
    24    1049.383    A        1.418573    0.708562
    25    1093.144    A        2.074108    0.067794
    26    1125.800    A        1.788179    0.278534
    27    1185.395    A        1.395987    0.857026
    28    1217.741    A        1.307696    1.623733
    29    1249.461    A        1.452274    2.272879
    30    1264.806    A        1.239808    2.473172
    31    1300.623    A        1.128072    0.612312
    32    1308.971    A        1.429688    1.437926
    33    1322.142    A        1.232146    1.467025
    34    1359.085    A        1.338347    0.132603
    35    1405.413    A        1.494681    0.164914
    36    1475.679    A        1.243632    0.001240
    37    1486.530    A        1.268743    0.021355
    38    1508.924    A        1.563333    0.092907
    39    1604.520    A        2.007000    0.034729
    40    1616.224    A        1.802688    0.287578
    41    1634.103    A        1.594501    0.038414
    42    1710.392    A        1.313635    0.111010
    43    1753.434    A        3.150438    0.399894
    44    1806.312    A        1.102914    0.005999
    45    1809.163    A        1.048822    0.045995
    46    1811.671    A        1.087101    0.022312
    47    1821.434    A        1.101497    0.012896
    48    1837.828    A        1.120387    0.005523
    49    3183.048    A        1.036911    0.037431
    50    3404.545    A        1.151613    0.172827
    51    3565.899    A        1.039365    0.009342
    52    3608.929    A        1.066118    0.062900
    53    3619.432    A        1.067112    0.062129
    54    3629.318    A        1.068873    0.016938
    55    3720.887    A        1.111055    0.007215
    56    3737.022    A        1.097223    0.470025
    57    3739.098    A        1.111733    0.075240
    58    3739.654    A        1.107443    0.026350
    59    3747.304    A        1.109772    0.003163
    60    3769.020    A        1.110440    0.008899

     -------------------------------
     THERMOCHEMISTRY AT T=  298.15 K
     -------------------------------

 USING IDEAL GAS, RIGID ROTOR, HARMONIC NORMAL MODE APPROXIMATIONS.
 P=  1.01325E+05 PASCAL.
 ALL FREQUENCIES ARE SCALED BY   1.00000
 THE MOMENTS OF INERTIA ARE (IN AMU*BOHR**2)
            525.87712           766.87052           955.66038
 THE ROTATIONAL SYMMETRY NUMBER IS  1.0
 THE ROTATIONAL CONSTANTS ARE (IN GHZ)
      3.42873     2.35123     1.88675
   2 IMAGINARY FREQUENCY VIBRATION(S) IS(ARE) EXCLUDED
     FROM THE FOLLOWING THERMOCHEMICAL ANALYSIS.
      9 -     60 VIBRATIONAL MODES ARE USED IN THERMOCHEMISTRY.
 THE HARMONIC ZERO POINT ENERGY IS (SCALED BY   1.000)
        0.203399 HARTREE/MOLECULE    44641.023046 CM**-1/MOLECULE 
      127.635218 KCAL/MOL              534.025751 KJ/MOL

               Q               LN Q
 ELEC.     1.00000E+00       0.000000
 TRANS.    3.70351E+07      17.427377
 ROT.      2.22227E+05      12.311454
 VIB.      1.01166E+01       2.314179
 TOT.      8.32617E+13      32.053010

              E         H         G         CV        CP        S
           KJ/MOL    KJ/MOL    KJ/MOL   J/MOL-K   J/MOL-K   J/MOL-K
 ELEC.      0.000     0.000     0.000     0.000     0.000     0.000
 TRANS.     3.718     6.197   -43.201    12.472    20.786   165.684
 ROT.       3.718     3.718   -30.519    12.472    12.472   114.834
 VIB.     543.684   543.684   528.289    78.864    78.864    51.636
 TOTAL    551.121   553.600   454.568   103.807   112.121   332.155
 VIB. THERMAL CORRECTION E(T)-E(0) = H(T)-H(0) =      9658.583 J/MOL

              E         H         G         CV        CP        S
         KCAL/MOL  KCAL/MOL  KCAL/MOL CAL/MOL-K CAL/MOL-K CAL/MOL-K
 ELEC.      0.000     0.000     0.000     0.000     0.000     0.000
 TRANS.     0.889     1.481   -10.325     2.981     4.968    39.600
 ROT.       0.889     0.889    -7.294     2.981     2.981    27.446
 VIB.     129.944   129.944   126.264    18.849    18.849    12.341
 TOTAL    131.721   132.314   108.644    24.810    26.798    79.387
 VIB. THERMAL CORRECTION E(T)-E(0) = H(T)-H(0) =      2308.457 CAL/MOL

     *******************************************************
     * THIS IS NOT A STATIONARY POINT ON THE MOLECULAR PES *
     *     THE VIBRATIONAL ANALYSIS IS NOT VALID !!!       *
     *******************************************************
 ......END OF NORMAL COORDINATE ANALYSIS......
 STEP CPU TIME =     0.01 TOTAL CPU TIME =        134.1 (      2.2 MIN)
 TOTAL WALL CLOCK TIME=        135.0 SECONDS, CPU UTILIZATION IS    99.36%
               580000  WORDS OF DYNAMIC MEMORY USED
 EXECUTION OF GAMESS TERMINATED NORMALLY Mon Nov 15 05:51:41 2021
 DDI: 263640 bytes (0.3 MB / 0 MWords) used by master data server.

 ----------------------------------------
 CPU timing information for all processes
 ========================================
 0: 131.596 + 2.530 = 134.126
 ----------------------------------------
 ddikick.x: exited gracefully.
----- accounting info -----
Files used on the master node chemcompute-node-0.novalocal were:
-rw-r--r--. 1 chemcomp chemcomp     1369 Nov 15 05:49 /scratch/306689/342703.F05
-rw-rw-r--. 1 chemcomp chemcomp  7920704 Nov 15 05:51 /scratch/306689/342703.F08
-rw-rw-r--. 1 chemcomp chemcomp 85196800 Nov 15 05:51 /scratch/306689/342703.F10
-rw-rw-r--. 1 chemcomp chemcomp   564960 Nov 15 05:51 /scratch/306689/342703.F18
Mon Nov 15 05:51:44 UTC 2021
0.166u 0.109s 2:18.61 0.1%	0+0k 8+216io 0pf+0w
Finishing Up...
Looking for IR data...
Looking for Raman data...
vibramans not found
Looking for thermodynamics data...
Looking for UV-Vis data...
306689
