----- GAMESS execution script 'rungms' -----
This job is running on host chemcompute-node-0.novalocal
under operating system Linux at Sat Nov 13 16:38:39 UTC 2021
SLURM has assigned the following compute nodes to this run:
chemcompute-node-0
Available scratch disk space (Kbyte units) at beginning of the job is
Filesystem     1K-blocks     Used Available Use% Mounted on
/dev/sda1       62903276 16736360  46166916  27% /
GAMESS temporary binary files will be written to /scratch/306031
GAMESS supplementary output files will be written to /data/slurm/341933
Copying input file 341933.inp to your run's scratch directory...
The generated host list is
chemcompute-node-0.novalocal

 Distributed Data Interface kickoff program.
 Initiating 1 compute processes on 1 nodes to run the following command:
 /data/gamess-2019R1-ddi/gamess.00.x 341933 

          ******************************************************
          *         GAMESS VERSION = 30 JUN 2019 (R1)          *
          *             FROM IOWA STATE UNIVERSITY             *
          * M.W.SCHMIDT, K.K.BALDRIDGE, J.A.BOATZ, S.T.ELBERT, *
          *   M.S.GORDON, J.H.JENSEN, S.KOSEKI, N.MATSUNAGA,   *
          *          K.A.NGUYEN, S.J.SU, T.L.WINDUS,           *
          *       TOGETHER WITH M.DUPUIS, J.A.MONTGOMERY       *
          *         J.COMPUT.CHEM.  14, 1347-1363(1993)        *
          **************** 64 BIT LINUX VERSION ****************

  SINCE 1993, STUDENTS AND POSTDOCS WORKING AT IOWA STATE UNIVERSITY
  AND ALSO IN THEIR VARIOUS JOBS AFTER LEAVING ISU HAVE MADE IMPORTANT
  CONTRIBUTIONS TO THE CODE:
     IVANA ADAMOVIC, CHRISTINE AIKENS, YURI ALEXEEV, POOJA ARORA,
     ANDREY ASADCHEV, ROB BELL, PRADIPTA BANDYOPADHYAY, JONATHAN BENTZ,
     COLLEEN BERTONI, BRETT BODE, KURT BRORSEN, CALEB CARLIN, GALINA CHABAN,
     WEI CHEN, CHEOL HO CHOI, PAUL DAY, ALBERT DEFUSCO, NUWAN DESILVA,
     TIM DUDLEY, DMITRI FEDOROV, ALEX FINDLATER, GRAHAM FLETCHER, 
     MARK FREITAG, KURT GLAESEMANN, ANASTASIA GUNINA,
     DAN KEMP, GRANT MERRILL, NORIYUKI MINEZAWA, JONATHAN MULLIN,
     TAKESHI NAGATA, SEAN NEDD, HEATHER NETZLOFF, BOSILJKA NJEGIC, RYAN OLSON,
     MIKE PAK, BUU PHAM,
     SPENCER PRUITT, LUKE ROSKOP, JIM SHOEMAKER, LYUDMILA SLIPCHENKO,
     TONY SMITH, SAROM SOK LEANG, JIE SONG, TETSUYA TAKETSUGU, SIMON WEBB,
     PENG XU, SOOHAENG YOO, FEDERICO ZAHARIEV

  ADDITIONAL CODE HAS BEEN PROVIDED BY COLLABORATORS IN OTHER GROUPS:
     IOWA STATE UNIVERSITY:
          JOE IVANIC, AARON WEST, LAIMUTIS BYTAUTAS, KLAUS RUEDENBERG
     UNIVERSITY OF TOKYO: KIMIHIKO HIRAO, TAKAHITO NAKAJIMA,
          TAKAO TSUNEDA, MUNEAKI KAMIYA, SUSUMU YANAGISAWA,
          KIYOSHI YAGI, MAHITO CHIBA, SEIKEN TOKURA, NAOAKI KAWAKAMI
     UNIVERSITY OF AARHUS: FRANK JENSEN
     UNIVERSITY OF IOWA: VISVALDAS KAIRYS, HUI LI
     NATIONAL INST. OF STANDARDS AND TECHNOLOGY: WALT STEVENS, DAVID GARMER
     UNIVERSITY OF PISA: BENEDETTA MENNUCCI, JACOPO TOMASI
     UNIVERSITY OF MEMPHIS: HENRY KURTZ, PRAKASHAN KORAMBATH
     UNIVERSITY OF ALBERTA: TOBY ZENG, MARIUSZ KLOBUKOWSKI
     UNIVERSITY OF NEW ENGLAND: MARK SPACKMAN
     MIE UNIVERSITY: HIROAKI UMEDA
     NAT. INST. OF ADVANCED INDUSTRIAL SCIENCE AND TECHNOLOGY: KAZUO KITAURA
     MICHIGAN STATE UNIVERSITY:
          KAROL KOWALSKI, MARTA WLOCH, JEFFREY GOUR, JESSE LUTZ,
          WEI LI, JUN SHEN, J. EMILIANO DEUSTUA, PIOTR PIECUCH
     UNIVERSITY OF MINNESOTA:
          YINAN SHU
     UNIVERSITY OF SILESIA: MONIKA MUSIAL, STANISLAW KUCHARSKI
     FACULTES UNIVERSITAIRES NOTRE-DAME DE LA PAIX:
          OLIVIER QUINET, BENOIT CHAMPAGNE
     UNIVERSITY OF CALIFORNIA - SANTA BARBARA: BERNARD KIRTMAN
     INSTITUTE FOR MOLECULAR SCIENCE:
          KAZUYA ISHIMURA, MICHIO KATOUDA, AND SHIGERU NAGASE
     UNIVERSITY OF NOTRE DAME: ANNA POMOGAEVA, DAN CHIPMAN
     KYUSHU UNIVERSITY:
          HARUYUKI NAKANO,
          FENG LONG GU, JACEK KORCHOWIEC, MARCIN MAKOWSKI, AND YURIKO AOKI,
          HIROTOSHI MORI AND EISAKU MIYOSHI
     PENNSYLVANIA STATE UNIVERSITY:
          TZVETELIN IORDANOV, CHET SWALINA, JONATHAN SKONE,
          SHARON HAMMES-SCHIFFER
     WASEDA UNIVERSITY:
          MASATO KOBAYASHI, TOMOKO AKAMA, TSUGUKI TOUMA,
          TAKESHI YOSHIKAWA, YASUHIRO IKABATA, JUNJI SEINO,
          YUYA NAKAJIMA, HIROMI NAKAI
     NANJING UNIVERSITY: SHUHUA LI
     UNIVERSITY OF NEBRASKA:
          PEIFENG SU, DEJUN SI, NANDUN THELLAMUREGE, YALI WANG, HUI LI
     UNIVERSITY OF ZURICH: ROBERTO PEVERATI, KIM BALDRIDGE
     N. COPERNICUS UNIVERSITY AND JACKSON STATE UNIVERSITY:
          MARIA BARYSZ
     UNIVERSITY OF COPENHAGEN: Jimmy Kromann, CASPER STEINMANN
     TOKYO INSTITUTE OF TECHNOLOGY: HIROYA NAKATA
     NAGOYA UNIVERSITY: YOSHIO NISHIMOTO, STEPHAN IRLE
     MOSCOW STATE UNIVERSITY: VLADIMIR MIRONOV
     A.N.NESMEYANOV INSTITUTE OF ORGANOELEMENT COMPOUNDS OF RUSSIAN ACADEMY OF SCIENCES:
          IGOR S. GERASIMOV

 EXECUTION OF GAMESS BEGUN Sat Nov 13 16:38:40 2021

            ECHO OF THE FIRST FEW INPUT CARDS -
 INPUT CARD>!File created by the GAMESS Input Deck Generator Plugin for Avogadro            
 INPUT CARD> $BASIS GBASIS=STO NGAUSS=3 $END                                                
 INPUT CARD> $CONTRL SCFTYP=RHF RUNTYP=OPTIMIZE NZVAR=1 mult=1  ICHARG=0 $END               
 INPUT CARD> $STATPT hssend=.t. OPTTOL=0.0005 NSTEP=50 $END                                 
 INPUT CARD> $STATPT HESS=calc ihrep=5 $END                                                 
 INPUT CARD> $FORCE nvib=2 $END                                                             
 INPUT CARD> $ZMAT DLC=.t. auto=.t. nonvdw(1)=6,16,9,16 $END                                
 INPUT CARD> $ZMAT IFZMAT(1)=1,6,16,1,9,16 fvalue(1)=3.97,4.01 $END                         
 INPUT CARD>                                                                                
 INPUT CARD> $DATA                                                                          
 INPUT CARD>Title                                                                           
 INPUT CARD>C1                                                                              
 INPUT CARD>C     6.0    -0.26191     2.05448    -0.00713                                   
 INPUT CARD>C     6.0     0.97962     1.16703    -0.18332                                   
 INPUT CARD>C     6.0    -1.42889     1.06949     0.16024                                   
 INPUT CARD>H     1.0    -0.35989     2.69775    -0.90877                                   
 INPUT CARD>H     1.0    -0.21512     2.69519     0.90042                                   
 INPUT CARD>C     6.0    -0.87395    -0.26481    -0.31149                                   
 INPUT CARD>H     1.0    -2.38943     1.39648    -0.29049                                   
 INPUT CARD>H     1.0    -1.60189     0.94692     1.25507                                   
 INPUT CARD>C     6.0     0.53258    -0.21181     0.27477                                   
 INPUT CARD>H     1.0     1.91124     1.56479     0.27123                                   
 INPUT CARD>H     1.0     1.16170     1.06939    -1.27919                                   
 INPUT CARD>H     1.0    -0.81596    -0.27569    -1.42411                                   
 INPUT CARD>H     1.0    -1.47447    -1.13601     0.02610                                   
 INPUT CARD>H     1.0     0.47609    -0.23849     1.38720                                   
 INPUT CARD>H     1.0     1.20027    -1.02892    -0.07141                                   
 INPUT CARD>Br    35.0    -0.14153    -4.15540    -0.01941                                  
 INPUT CARD>H     1.0     1.31398    -3.69805     0.07794                                   
 INPUT CARD> $END                                                                           
    1000000 WORDS OF MEMORY AVAILABLE

     BASIS OPTIONS
     -------------
     GBASIS=STO          IGAUSS=       3      POLAR=NONE    
     NDFUNC=       0     NFFUNC=       0     DIFFSP=       F
     NPFUNC=       0      DIFFS=       F     BASNAM=        


     RUN TITLE
     ---------
 Title                                                                           

 THE POINT GROUP OF THE MOLECULE IS C1      
 THE ORDER OF THE PRINCIPAL AXIS IS     0

 ATOM      ATOMIC                      COORDINATES (BOHR)
           CHARGE         X                   Y                   Z
 C           6.0    -0.4949381334        3.8824042473       -0.0134737463
 C           6.0     1.8512133721        2.2053669195       -0.3464245681
 C           6.0    -2.7002105666        2.0210430466        0.3028096923
 H           1.0    -0.6800934857        5.0980082834       -1.7173262859
 H           1.0    -0.4065178545        5.0931705848        1.7015470739
 C           6.0    -1.6515260270       -0.5004183388       -0.5886307479
 H           1.0    -4.5153679668        2.6389645473       -0.5489465022
 H           1.0    -3.0271331625        1.7894193323        2.3717383954
 C           6.0     1.0064302665       -0.4002628615        0.5192400096
 H           1.0     3.6117198968        2.9570243283        0.5125503796
 H           1.0     2.1952946799        2.0208540740       -2.4173185862
 H           1.0    -1.5419408169       -0.5209785576       -2.6911776764
 H           1.0    -2.7863442771       -2.1467476193        0.0493218483
 H           1.0     0.8996796455       -0.4506807508        2.6214278902
 H           1.0     2.2681814113       -1.9443768633       -0.1349453328
 BR         35.0    -0.2674529190       -7.8525673694       -0.0366795814
 H           1.0     2.4830621533       -6.9883011889        0.1472852435

          INTERNUCLEAR DISTANCES (ANGS.)
          ------------------------------

                1 C          2 C          3 C          4 H          5 H     

   1 C       0.0000000    1.5362315 *  1.5362488 *  1.1119132 *  1.1119108 *
   2 C       1.5362315 *  0.0000000    2.4348445 *  2.1595528 *  2.2219741 *
   3 C       1.5362488 *  2.4348445 *  0.0000000    2.2218852 *  2.1596306 *
   4 H       1.1119132 *  2.1595528 *  2.2218852 *  0.0000000    1.8149748 *
   5 H       1.1119108 *  2.2219741 *  2.1596306 *  1.8149748 *  0.0000000  
   6 C       2.4179194 *  2.3457014 *  1.5201461 *  3.0655771    3.2656367  
   7 H       2.2449050 *  3.3785545    1.1102779 *  2.4888966 *  2.7986672 *
   8 H       2.1483446 *  2.9633778 *  1.1151705 *  3.0479785    2.2595034 *
   9 C       2.4180059 *  1.5201615 *  2.3456793 *  3.2653957    3.0661282  
  10 H       2.2449636 *  1.1102903 *  3.3784774    2.7989337 *  2.4889940 *
  11 H       2.1483027 *  1.1151761 *  2.9636321 *  2.2592042 *  3.0478777  
  12 H       2.7828934 *  2.6163158 *  2.1668773 *  3.0520355    3.8197613  
  13 H       3.4133023    3.3720035    2.2100455 *  4.1004861    4.1265593  
  14 H       2.7832556 *  2.1669245 *  2.6163317 *  3.8199275    3.0530648  
  15 H       3.4131302    2.2098431 *  3.3718643    4.1259351    4.1008265  
  16 BR      6.2110588    5.4417006    5.3841476    6.9140659    6.9124588  
  17 H       5.9650874    4.8835496    5.5008678    6.6844368    6.6248123  

                6 C          7 H          8 H          9 C         10 H     

   1 C       2.4179194 *  2.2449050 *  2.1483446 *  2.4180059 *  2.2449636 *
   2 C       2.3457014 *  3.3785545    2.9633778 *  1.5201615 *  1.1102903 *
   3 C       1.5201461 *  1.1102779 *  1.1151705 *  2.3456793 *  3.3784774  
   4 H       3.0655771    2.4888966 *  3.0479785    3.2653957    2.7989337 *
   5 H       3.2656367    2.7986672 *  2.2595034 *  3.0661282    2.4889940 *
   6 C       0.0000000    2.2487786 *  2.1100466 *  1.5247414 *  3.3829399  
   7 H       2.2487786 *  0.0000000    1.7919484 *  3.3829363    4.3404631  
   8 H       2.1100466 *  1.7919484 *  0.0000000    2.6190849 *  3.7002415  
   9 C       1.5247414 *  3.3829363    2.6190849 *  0.0000000    2.2487827 *
  10 H       3.3829399    4.3404631    3.7002415    2.2487827 *  0.0000000  
  11 H       2.6192373 *  3.7006810    3.7516533    2.1099898 *  1.7919357 *
  12 H       1.1141833 *  2.5606746 *  3.0480267    2.1699848 *  3.7012382  
  13 H       1.1106668 *  2.7112519 *  2.4218176 *  2.2235629 *  4.3379075  
  14 H       2.1699881 *  3.7012127    2.3959666 *  1.1141829 *  2.5606373 *
  15 H       2.2234863 *  4.3377998    3.6763560    1.1105491 *  2.7111275 *
  16 BR      3.9696902    5.9958244    5.4580784    4.0115917    6.0843167  
  17 H       4.0897225    6.3091380    5.6092494    3.5781556    5.3001477  

               11 H         12 H         13 H         14 H         15 H     

   1 C       2.1483027 *  2.7828934 *  3.4133023    2.7832556 *  3.4131302  
   2 C       1.1151761 *  2.6163158 *  3.3720035    2.1669245 *  2.2098431 *
   3 C       2.9636321 *  2.1668773 *  2.2100455 *  2.6163317 *  3.3718643  
   4 H       2.2592042 *  3.0520355    4.1004861    3.8199275    4.1259351  
   5 H       3.0478777    3.8197613    4.1265593    3.0530648    4.1008265  
   6 C       2.6192373 *  1.1141833 *  1.1106668 *  2.1699881 *  2.2234863 *
   7 H       3.7006810    2.5606746 *  2.7112519 *  3.7012127    4.3377998  
   8 H       3.7516533    3.0480267    2.4218176 *  2.3959666 *  3.6763560  
   9 C       2.1099898 *  2.1699848 *  2.2235629 *  1.1141829 *  1.1105491 *
  10 H       1.7919357 *  3.7012382    4.3379075    2.5606373 *  2.7111275 *
  11 H       0.0000000    2.3961179 *  3.6765423    3.0479906    2.4213891 *
  12 H       2.3961179 *  0.0000000    1.8102196 *  3.0942270    2.5421125 *
  13 H       3.6765423    1.8102196 *  0.0000000    2.5422076 *  2.6786583 *
  14 H       3.0479906    3.0942270    2.5422076 *  0.0000000    1.8101821 *
  15 H       2.4213891 *  2.5421125 *  2.6786583 *  1.8101821 *  0.0000000  
  16 BR      5.5302699    4.1809314    3.3008357    4.2073971    3.4026473  
  17 H       4.9591809    4.3017841    3.7871084    3.7927268    2.6757224 *

               16 BR        17 H     

   1 C       6.2110588    5.9650874  
   2 C       5.4417006    4.8835496  
   3 C       5.3841476    5.5008678  
   4 H       6.9140659    6.6844368  
   5 H       6.9124588    6.6248123  
   6 C       3.9696902    4.0897225  
   7 H       5.9958244    6.3091380  
   8 H       5.4580784    5.6092494  
   9 C       4.0115917    3.5781556  
  10 H       6.0843167    5.3001477  
  11 H       5.5302699    4.9591809  
  12 H       4.1809314    4.3017841  
  13 H       3.3008357    3.7871084  
  14 H       4.2073971    3.7927268  
  15 H       3.4026473    2.6757224 *
  16 BR      0.0000000    1.5287758 *
  17 H       1.5287758 *  0.0000000  

  * ... LESS THAN  3.000


     ATOMIC BASIS SET
     ----------------
 THE CONTRACTED PRIMITIVE FUNCTIONS HAVE BEEN UNNORMALIZED
 THE CONTRACTED BASIS FUNCTIONS ARE NOW NORMALIZED TO UNITY

  SHELL TYPE  PRIMITIVE        EXPONENT          CONTRACTION COEFFICIENT(S)

 C         

      1   S       1            71.6168373    0.154328967295
      1   S       2            13.0450963    0.535328142282
      1   S       3             3.5305122    0.444634542185

      2   L       4             2.9412494   -0.099967229187    0.155916274999
      2   L       5             0.6834831    0.399512826089    0.607683718598
      2   L       6             0.2222899    0.700115468880    0.391957393099

 C         

      3   S       7            71.6168373    0.154328967295
      3   S       8            13.0450963    0.535328142282
      3   S       9             3.5305122    0.444634542185

      4   L      10             2.9412494   -0.099967229187    0.155916274999
      4   L      11             0.6834831    0.399512826089    0.607683718598
      4   L      12             0.2222899    0.700115468880    0.391957393099

 C         

      5   S      13            71.6168373    0.154328967295
      5   S      14            13.0450963    0.535328142282
      5   S      15             3.5305122    0.444634542185

      6   L      16             2.9412494   -0.099967229187    0.155916274999
      6   L      17             0.6834831    0.399512826089    0.607683718598
      6   L      18             0.2222899    0.700115468880    0.391957393099

 H         

      7   S      19             3.4252509    0.154328967295
      7   S      20             0.6239137    0.535328142282
      7   S      21             0.1688554    0.444634542185

 H         

      8   S      22             3.4252509    0.154328967295
      8   S      23             0.6239137    0.535328142282
      8   S      24             0.1688554    0.444634542185

 C         

      9   S      25            71.6168373    0.154328967295
      9   S      26            13.0450963    0.535328142282
      9   S      27             3.5305122    0.444634542185

     10   L      28             2.9412494   -0.099967229187    0.155916274999
     10   L      29             0.6834831    0.399512826089    0.607683718598
     10   L      30             0.2222899    0.700115468880    0.391957393099

 H         

     11   S      31             3.4252509    0.154328967295
     11   S      32             0.6239137    0.535328142282
     11   S      33             0.1688554    0.444634542185

 H         

     12   S      34             3.4252509    0.154328967295
     12   S      35             0.6239137    0.535328142282
     12   S      36             0.1688554    0.444634542185

 C         

     13   S      37            71.6168373    0.154328967295
     13   S      38            13.0450963    0.535328142282
     13   S      39             3.5305122    0.444634542185

     14   L      40             2.9412494   -0.099967229187    0.155916274999
     14   L      41             0.6834831    0.399512826089    0.607683718598
     14   L      42             0.2222899    0.700115468880    0.391957393099

 H         

     15   S      43             3.4252509    0.154328967295
     15   S      44             0.6239137    0.535328142282
     15   S      45             0.1688554    0.444634542185

 H         

     16   S      46             3.4252509    0.154328967295
     16   S      47             0.6239137    0.535328142282
     16   S      48             0.1688554    0.444634542185

 H         

     17   S      49             3.4252509    0.154328967295
     17   S      50             0.6239137    0.535328142282
     17   S      51             0.1688554    0.444634542185

 H         

     18   S      52             3.4252509    0.154328967295
     18   S      53             0.6239137    0.535328142282
     18   S      54             0.1688554    0.444634542185

 H         

     19   S      55             3.4252509    0.154328967295
     19   S      56             0.6239137    0.535328142282
     19   S      57             0.1688554    0.444634542185

 H         

     20   S      58             3.4252509    0.154328967295
     20   S      59             0.6239137    0.535328142282
     20   S      60             0.1688554    0.444634542185

 BR        

     21   S      61          2629.9974710    0.154328967295
     21   S      62           479.0573224    0.535328142282
     21   S      63           129.6516070    0.444634542185

     22   L      64           219.8350255   -0.099967229187    0.155916274999
     22   L      65            51.0849322    0.399512826089    0.607683718598
     22   L      66            16.6144055    0.700115468880    0.391957393099

     23   L      67            20.6524416   -0.219620369005    0.010587604289
     23   L      68             5.7619788    0.225595433605    0.595167005266
     23   L      69             2.2551994    0.900398426019    0.462001011973

     24   D      70            22.3657496    0.168659606013
     24   D      71             7.0128139    0.584798481745
     24   D      72             2.7316638    0.405677952331

     25   L      73             1.3960375   -0.308844121382   -0.121546859998
     25   L      74             0.5152256    0.019606411652    0.571522760389
     25   L      75             0.2275291    1.131034441567    0.549894947089

 H         

     26   S      76             3.4252509    0.154328967295
     26   S      77             0.6239137    0.535328142282
     26   S      78             0.1688554    0.444634542185

 TOTAL NUMBER OF BASIS SET SHELLS             =   26
 NUMBER OF CARTESIAN GAUSSIAN BASIS FUNCTIONS =   55
 NUMBER OF ELECTRONS                          =   76
 CHARGE OF MOLECULE                           =    0
 SPIN MULTIPLICITY                            =    1
 NUMBER OF OCCUPIED ORBITALS (ALPHA)          =   38
 NUMBER OF OCCUPIED ORBITALS (BETA )          =   38
 TOTAL NUMBER OF ATOMS                        =   17
 THE NUCLEAR REPULSION ENERGY IS      358.3760303683

     $CONTRL OPTIONS
     ---------------
 SCFTYP=RHF          RUNTYP=OPTIMIZE     EXETYP=RUN     
 MPLEVL=       0     CITYP =NONE         CCTYP =NONE         VBTYP =NONE    
 DFTTYP=NONE         TDDFT =NONE    
 MULT  =       1     ICHARG=       0     NZVAR =       1     COORD =UNIQUE  
 PP    =NONE         RELWFN=NONE         LOCAL =NONE         NUMGRD=       F
 ISPHER=      -1     NOSYM =       0     MAXIT =      30     UNITS =ANGS    
 PLTORB=       F     MOLPLT=       F     AIMPAC=       F     FRIEND=        
 NPRINT=       7     IREST =       0     GEOM  =INPUT   
 NORMF =       0     NORMP =       0     ITOL  =      20     ICUT  =       9
 INTTYP=BEST         GRDTYP=BEST         QMTTOL= 1.0E-06

     $SYSTEM OPTIONS
     ---------------
  REPLICATED MEMORY=     1000000 WORDS (ON EVERY NODE).
 DISTRIBUTED MEMDDI=           0 MILLION WORDS IN AGGREGATE,
 MEMDDI DISTRIBUTED OVER   1 PROCESSORS IS           0 WORDS/PROCESSOR.
 TOTAL MEMORY REQUESTED ON EACH PROCESSOR=     1000000 WORDS.
 TIMLIM=      525600.00 MINUTES, OR     365.0 DAYS.
 PARALL= F  BALTYP=  DLB     KDIAG=    0  COREFL= F
 MXSEQ2=     300 MXSEQ3=     150  mem10=         0

          ----------------
          PROPERTIES INPUT
          ----------------

     MOMENTS            FIELD           POTENTIAL          DENSITY
 IEMOM =       1   IEFLD =       0   IEPOT =       0   IEDEN =       0
 WHERE =COMASS     WHERE =NUCLEI     WHERE =NUCLEI     WHERE =NUCLEI  
 OUTPUT=BOTH       OUTPUT=BOTH       OUTPUT=BOTH       OUTPUT=BOTH    
 IEMINT=       0   IEFINT=       0                     IEDINT=       0
                                                       MORB  =       0
          EXTRAPOLATION IN EFFECT
          SOSCF IN EFFECT
 ORBITAL PRINTING OPTION: NPREO=     1    55     2     1

     -------------------------------
     INTEGRAL TRANSFORMATION OPTIONS
     -------------------------------
     NWORD  =            0
     CUTOFF = 1.0E-09     MPTRAN =       0
     DIRTRF =       F     AOINTS =DUP     

          ----------------------
          INTEGRAL INPUT OPTIONS
          ----------------------
 NOPK  =       1 NORDER=       0 SCHWRZ=       T


 -----------------------------------------------
  STATISTICS ON AUTOMATIC COORDINATE GENERATION 
 -----------------------------------------------
  NUMBER OF USER SPECIFIED BONDS                             2
  NUMBER OF BONDS                                           18
  NUMBER OF ANGLES                                          41
  NUMBER OF TORSIONS                                        71
  NUMBER OF EXTRA COORD.                                     0
  NUMBER OF EXTRA COORD. FOR CONSTRAINTS                     0
  NUMBER OF CONSTRAINED COORD.                               2

  TOTAL NUMBER OF PRIMITIVES                               130
 -----------------------------------------------

   --- ENCODED Z MATRIX ---
 COORD  TYPE   I   J   K   L   M   N
    1      1    6  16
    2      1    9  16
    3      1    1   2
    4      1    1   3
    5      1    1   4
    6      1    1   5
    7      1    2  10
    8      1    2   9
    9      1    2  11
   10      1    3   8
   11      1    3   7
   12      1    3   6
   13      1    6  13
   14      1    6  12
   15      1    6   9
   16      1    9  15
   17      1    9  14
   18      1   16  17
   19      2    1   3   7
   20      2    1   2  10
   21      2    1   2  11
   22      2    1   2   9
   23      2    1   3   6
   24      2    1   3   8
   25      2    2   1   3
   26      2    2   9   6
   27      2    2   9  14
   28      2    2   9  15
   29      2    2   9  16
   30      2    2   1   4
   31      2    2   1   5
   32      2    3   1   4
   33      2    3   6  16
   34      2    3   6   9
   35      2    3   6  12
   36      2    3   6  13
   37      2    3   1   5
   38      2    4   1   5
   39      2    6   3   7
   40      2    6   3   8
   41      2    6  16  17
   42      2    6  16   9
   43      2    6   9  16
   44      2    6   9  14
   45      2    6   9  15
   46      2    7   3   8
   47      2    9   2  11
   48      2    9   6  12
   49      2    9   6  13
   50      2    9   2  10
   51      2    9  16  17
   52      2    9   6  16
   53      2   10   2  11
   54      2   12   6  16
   55      2   12   6  13
   56      2   13   6  16
   57      2   14   9  16
   58      2   14   9  15
   59      2   15   9  16
   60      3    1   2   9  14
   61      3    1   2   9  15
   62      3    1   2   9   6
   63      3    1   3   6  16
   64      3    1   3   6   9
   65      3    1   3   6  12
   66      3    1   3   6  13
   67      3    1   2   9  16
   68      3    2   9  16  17
   69      3    2   9  16   6
   70      3    2   1   3   8
   71      3    2   9   6  16
   72      3    2   9   6  12
   73      3    2   9   6  13
   74      3    2   9   6   3
   75      3    2   1   3   7
   76      3    2   1   3   6
   77      3    3   6  16   9
   78      3    3   1   2  11
   79      3    3   1   2   9
   80      3    3   6   9  16
   81      3    3   6   9  14
   82      3    3   6   9  15
   83      3    3   1   2  10
   84      3    3   6  16  17
   85      3    4   1   3   8
   86      3    4   1   2   9
   87      3    4   1   2  10
   88      3    4   1   3   6
   89      3    4   1   2  11
   90      3    4   1   3   7
   91      3    5   1   3   8
   92      3    5   1   2  10
   93      3    5   1   3   7
   94      3    5   1   2   9
   95      3    5   1   3   6
   96      3    5   1   2  11
   97      3    6   9  16  17
   98      3    6  16   9  14
   99      3    6  16   9  15
  100      3    6   9   2  11
  101      3    6   9   2  10
  102      3    7   3   6  16
  103      3    7   3   6  13
  104      3    7   3   6  12
  105      3    7   3   6   9
  106      3    8   3   6  16
  107      3    8   3   6  13
  108      3    8   3   6  12
  109      3    8   3   6   9
  110      3    9  16   6  12
  111      3    9  16   6  13
  112      3    9   6  16  17
  113      3   10   2   9  16
  114      3   10   2   9  15
  115      3   10   2   9  14
  116      3   11   2   9  16
  117      3   11   2   9  15
  118      3   11   2   9  14
  119      3   12   6   9  15
  120      3   12   6   9  14
  121      3   12   6   9  16
  122      3   12   6  16  17
  123      3   13   6   9  15
  124      3   13   6   9  14
  125      3   13   6   9  16
  126      3   13   6  16  17
  127      3   14   9   6  16
  128      3   14   9  16  17
  129      3   15   9   6  16
  130      3   15   9  16  17

          INDEP./SYM. INTERNAL COORDINATES
          --------------------------------
 CRD  1=   1.0000 (  1)
 CRD  2=   1.0000 (  2)
 CRD  3=  -0.1189 (  7) -0.3097 (  8)  0.1452 ( 11)  0.2986 ( 12) -0.1094 ( 13)
           0.1153 ( 14) -0.1115 ( 17)  0.1286 ( 18) -0.1771 ( 23)  0.1086 ( 25)
           0.1198 ( 29) -0.1048 ( 31) -0.1827 ( 33) -0.1078 ( 36)  0.2659 ( 39)
           0.1159 ( 41) -0.1277 ( 50)  0.1072 ( 51)  0.1043 ( 61)  0.1068 ( 62)
           0.1101 ( 67)  0.1004 ( 68)  0.1221 ( 71)  0.1019 ( 76) -0.1124 ( 79)
          -0.1858 ( 80) -0.1245 ( 86)  0.1493 ( 88) -0.1157 ( 94)  0.1721 ( 95)
          -0.1257 (111) -0.1061 (121)  0.1261 (128)  0.1698 (130)
 CRD  4=  -0.1369 (  4) -0.1168 (  5) -0.1528 (  6)  0.1479 (  7) -0.1268 ( 12)
           0.3210 ( 15)  0.1011 ( 19) -0.2812 ( 22) -0.2285 ( 23)  0.4110 ( 25)
          -0.1212 ( 28) -0.1357 ( 30) -0.1341 ( 31) -0.1721 ( 32) -0.1477 ( 37)
           0.1753 ( 38)  0.1136 ( 40)  0.2132 ( 41)  0.1806 ( 50)  0.1699 ( 51)
          -0.1130 ( 53) -0.1039 ( 74)
 CRD  5=   0.3117 (  3)  0.3339 (  4)  0.1290 (  7)  0.1658 (  8)  0.1746 ( 11)
           0.2513 ( 12)  0.1384 ( 13)  0.3730 ( 15)  0.1591 ( 16)  0.1350 ( 19)
           0.1352 ( 20) -0.1367 ( 30)  0.1228 ( 31)  0.1453 ( 32) -0.1297 ( 37)
           0.1260 ( 47) -0.1353 ( 50) -0.1402 ( 51) -0.1194 ( 60) -0.1349 ( 64)
          -0.1428 ( 65)  0.1134 ( 70)  0.1021 ( 74)  0.1183 ( 78) -0.1125 ( 86)
 CRD  6=   0.5320 (  3) -0.4668 (  4) -0.1097 ( 13)  0.1021 ( 16) -0.1326 ( 19)
           0.1618 ( 20)  0.1109 ( 23)  0.1581 ( 30)  0.2052 ( 31) -0.1743 ( 32)
          -0.1435 ( 37)  0.1539 ( 85)  0.1341 ( 86)  0.1672 ( 87) -0.1517 ( 93)
          -0.1505 ( 95) -0.1679 ( 96)
 CRD  7=  -0.1467 (  4)  0.4517 (  8)  0.4486 ( 12) -0.1267 ( 15)  0.1089 ( 16)
          -0.1648 ( 19) -0.1346 ( 20)  0.1407 ( 25) -0.1033 ( 32)  0.2146 ( 39)
          -0.2166 ( 41)  0.2215 ( 50) -0.2015 ( 51) -0.1026 ( 75) -0.1107 ( 83)
           0.1007 (120)
 CRD  8=  -0.3410 (  3) -0.3724 (  4) -0.1226 (  5) -0.1106 (  6) -0.1199 (  7)
          -0.1695 ( 15) -0.1874 ( 21) -0.1988 ( 24) -0.2202 ( 30)  0.1493 ( 31)
           0.1511 ( 32) -0.2365 ( 37)  0.1408 ( 40)  0.1705 ( 47) -0.1038 ( 50)
          -0.1027 ( 64)  0.1433 ( 70)  0.1603 ( 74)  0.1497 ( 78) -0.1399 ( 94)
 CRD  9=  -0.2840 (  8) -0.1074 (  9)  0.2673 ( 12)  0.1569 ( 13)  0.1441 ( 14)
          -0.1689 ( 16) -0.1378 ( 17) -0.1712 ( 18)  0.1341 ( 21) -0.1241 ( 24)
          -0.1425 ( 28)  0.1376 ( 36)  0.1775 ( 40)  0.1381 ( 45) -0.1905 ( 47)
          -0.1301 ( 49) -0.1386 ( 56)  0.1494 ( 59) -0.1161 ( 68) -0.1283 ( 75)
          -0.1318 ( 76)  0.1313 ( 79)  0.1261 ( 83) -0.1657 (100)  0.1524 (109)
           0.1625 (119) -0.1609 (124)
 CRD 10=  -0.1038 (  9)  0.2164 ( 10) -0.2801 ( 13)  0.1077 ( 14)  0.2353 ( 16)
          -0.1685 ( 17)  0.1557 ( 19) -0.1104 ( 20)  0.1315 ( 29) -0.1527 ( 33)
          -0.2204 ( 39)  0.1936 ( 40) -0.1291 ( 47)  0.1816 ( 50)  0.1746 ( 54)
          -0.1940 ( 57)  0.1339 ( 71)  0.1156 ( 75)  0.1046 ( 79) -0.1548 ( 80)
           0.1182 ( 86) -0.1937 ( 88)  0.1395 ( 94) -0.1777 ( 95)  0.1021 (102)
          -0.1833 (121) -0.1073 (125)  0.1909 (127)  0.1270 (130)
 CRD 11=   0.2210 (  5) -0.2128 (  6)  0.1207 (  8) -0.1008 ( 12)  0.2821 ( 18)
           0.1194 ( 30) -0.1125 ( 37) -0.1828 ( 44)  0.1635 ( 48)  0.1017 ( 54)
          -0.1244 ( 57) -0.1369 ( 69) -0.1694 ( 70) -0.1868 ( 75)  0.1333 ( 77)
           0.1707 ( 78)  0.1822 ( 83)  0.1707 ( 84)  0.1104 ( 88) -0.1027 ( 94)
          -0.1598 ( 98) -0.1466 (100) -0.1107 (101)  0.1036 (105)  0.1160 (107)
           0.1441 (109)  0.1497 (110) -0.1030 (117) -0.1294 (119)  0.1871 (122)
           0.1305 (124) -0.1135 (128)
 CRD 12=   0.3912 (  9)  0.3498 ( 10) -0.1615 ( 15) -0.2490 ( 16)  0.1087 ( 24)
          -0.1018 ( 29) -0.1645 ( 30)  0.1748 ( 31)  0.1910 ( 32) -0.1933 ( 37)
           0.1190 ( 47) -0.1072 ( 50)  0.1151 ( 60)  0.1346 ( 63)  0.1356 ( 65)
           0.1234 ( 67) -0.1048 ( 71) -0.1193 ( 73) -0.1316 ( 74)  0.1206 ( 78)
           0.1249 ( 83) -0.1583 ( 86) -0.1044 ( 88) -0.1475 ( 94) -0.1249 ( 95)
 CRD 13=   0.3877 (  5) -0.3981 (  6) -0.2763 (  9)  0.1871 ( 10) -0.1810 ( 18)
          -0.1176 ( 19)  0.1227 ( 20) -0.2051 ( 21)  0.1832 ( 24)  0.1288 ( 39)
          -0.1228 ( 50) -0.1342 ( 60)  0.1248 ( 63)  0.1054 ( 65) -0.1465 ( 67)
          -0.1535 ( 70) -0.1434 ( 75) -0.1005 ( 76)  0.1403 ( 78)  0.1037 ( 79)
           0.1314 ( 83)  0.1064 (117)
 CRD 14=  -0.1411 ( 13)  0.5425 ( 14)  0.5107 ( 17)  0.1169 ( 19)  0.1010 ( 20)
          -0.1195 ( 21) -0.1311 ( 24)  0.1041 ( 40)  0.1025 ( 44)  0.1033 ( 47)
           0.1075 ( 48)  0.1041 ( 69)  0.1116 ( 77)  0.1017 ( 98)  0.1543 (100)
           0.1286 (101)  0.1464 (105)  0.1682 (109)  0.1070 (110)
 CRD 15=   0.3306 (  7) -0.2777 (  9)  0.2391 ( 10) -0.1227 ( 11)  0.2099 ( 14)
          -0.1706 ( 16) -0.3446 ( 17)  0.2138 ( 18) -0.1218 ( 27)  0.2008 ( 28)
           0.1454 ( 35) -0.1271 ( 36) -0.1944 ( 45) -0.1259 ( 54)  0.1312 ( 56)
          -0.2337 ( 59) -0.1349 ( 61)  0.1337 ( 72)  0.1153 ( 73) -0.1026 ( 81)
          -0.1573 ( 82)  0.1147 (113)  0.1220 (121)  0.1036 (125) -0.1484 (129)
 CRD 16=  -0.2575 (  7)  0.2211 ( 10) -0.3925 ( 11)  0.2895 ( 13)  0.3226 ( 14)
           0.2648 ( 16)  0.1191 ( 17) -0.1119 ( 19) -0.1420 ( 36)  0.1736 ( 49)
           0.1857 ( 56)  0.1376 ( 66) -0.1526 (102) -0.1262 (106) -0.1011 (111)
          -0.1064 (113)  0.1173 (123)
 CRD 17=   0.2516 (  7) -0.2877 ( 11)  0.4650 ( 13) -0.3537 ( 16)  0.1146 ( 20)
           0.1410 ( 27) -0.1064 ( 28) -0.1404 ( 35)  0.1515 ( 54) -0.1494 ( 57)
           0.1034 ( 59) -0.1523 ( 72) -0.1079 ( 73)  0.1499 ( 81)  0.1100 ( 82)
          -0.1596 (121) -0.1152 (125)  0.1566 (127)  0.1167 (129)  0.1339 (130)
 CRD 18=   0.3641 (  5)  0.3556 (  6) -0.2752 (  7) -0.1579 ( 11) -0.1811 ( 14)
          -0.1155 ( 17) -0.1660 ( 31) -0.1664 ( 32)  0.1461 ( 38)  0.1368 ( 40)
           0.1337 ( 47)  0.1112 ( 70)  0.1189 ( 78)  0.1298 ( 85)  0.1354 ( 86)
           0.1933 ( 87)  0.2553 ( 89)  0.2487 ( 91)  0.2104 ( 93)  0.1349 ( 95)
           0.1339 ( 96)
 CRD 19=   0.4818 (  5)  0.4831 (  6) -0.1312 (  9) -0.2214 ( 10) -0.1404 ( 13)
           0.1130 ( 14) -0.1965 ( 16) -0.1462 ( 30) -0.1442 ( 37)  0.1661 ( 38)
          -0.1798 ( 85) -0.1248 ( 88) -0.2061 ( 90) -0.1884 ( 92) -0.1251 ( 94)
          -0.1875 ( 96)
 CRD 20=   0.3989 (  7)  0.3522 (  9) -0.3389 ( 10) -0.4852 ( 11) -0.2362 ( 13)
           0.2103 ( 16) -0.1575 ( 46)  0.1377 ( 53)  0.1201 ( 91)
 CRD 21=  -0.1062 (  3)  0.1653 (  5)  0.1740 (  6)  0.4132 (  7)  0.3720 (  9)
           0.3567 ( 10)  0.3668 ( 11)  0.1448 ( 13)  0.2033 ( 16)  0.1543 ( 46)
           0.1691 ( 53) -0.1015 ( 85)  0.1143 ( 87)  0.1064 ( 93) -0.1030 ( 96)
           0.1018 (117)  0.1116 (118)
 CRD 22=  -0.2559 (  9)  0.3082 ( 13)  0.4941 ( 16)  0.2970 ( 17)  0.1636 ( 18)
           0.1036 ( 41) -0.1015 ( 44) -0.1114 ( 49)  0.1125 ( 51) -0.1277 ( 56)
           0.1691 ( 58)  0.1148 ( 60) -0.1138 ( 98) -0.1009 (107)  0.1451 (113)
           0.1863 (115) -0.1273 (117) -0.1426 (124)  0.1334 (130)
 CRD 23=  -0.3239 (  5)  0.3111 (  6)  0.1757 ( 10) -0.3859 ( 13) -0.1295 ( 19)
           0.1093 ( 39)  0.1235 ( 48) -0.1323 ( 55) -0.1163 ( 65) -0.1414 ( 85)
           0.1266 ( 87)  0.1390 ( 89) -0.1421 ( 90) -0.1442 ( 91)  0.1408 ( 92)
          -0.1450 ( 93)  0.1532 ( 96) -0.1228 (102) -0.1990 (104) -0.1326 (108)
           0.1314 (110)  0.1008 (114)  0.1092 (115)  0.1288 (122)
 CRD 24=  -0.1642 (  7)  0.2753 (  9) -0.1095 ( 10)  0.1260 ( 13)  0.4162 ( 14)
           0.1147 ( 16) -0.3123 ( 17) -0.1360 ( 18)  0.1186 ( 24) -0.1431 ( 49)
           0.1405 ( 55) -0.1328 ( 66)  0.1068 ( 78)  0.1005 ( 83) -0.1551 ( 84)
           0.1474 ( 87)  0.1538 ( 89)  0.1302 ( 92)  0.1366 ( 96) -0.1356 (103)
          -0.2278 (107)  0.1716 (111) -0.1396 (119)  0.1004 (126) -0.1247 (130)
 CRD 25=   0.1262 (  9)  0.3595 ( 10) -0.2275 ( 11) -0.1609 ( 14)  0.1882 ( 17)
           0.1276 ( 18) -0.1106 ( 35)  0.1371 ( 36) -0.1241 ( 45)  0.1047 ( 48)
          -0.1404 ( 56) -0.1228 ( 61) -0.1407 ( 65) -0.1047 ( 68)  0.1031 ( 85)
           0.1004 ( 90)  0.1150 ( 91)  0.1123 ( 93)  0.1164 ( 99) -0.1137 (102)
          -0.1551 (103) -0.1990 (104) -0.1203 (105) -0.1133 (107) -0.1572 (108)
          -0.1616 (114) -0.1383 (115) -0.1838 (117) -0.1605 (118) -0.1219 (123)
          -0.1360 (124) -0.1219 (125)
 CRD 26=   0.1211 (  7) -0.1704 (  9)  0.1303 ( 10) -0.1159 ( 13)  0.2545 ( 14)
           0.1208 ( 27) -0.1177 ( 28) -0.1435 ( 44)  0.1102 ( 45)  0.1212 ( 59)
           0.1401 ( 60) -0.1389 ( 66)  0.1131 ( 70)  0.1361 ( 75)  0.1067 ( 76)
           0.1159 ( 81)  0.1194 ( 82) -0.1419 ( 84)  0.1320 ( 85) -0.1025 ( 86)
          -0.1114 ( 87)  0.1256 ( 88)  0.1550 ( 90)  0.1494 ( 91) -0.1010 ( 92)
           0.1724 ( 93)  0.1430 ( 95) -0.1264 ( 98) -0.1659 (103) -0.1062 (105)
          -0.1680 (107) -0.1082 (109)  0.1202 (111)  0.1144 (114)  0.1553 (115)
           0.1087 (118)  0.1268 (119)  0.1233 (120)  0.1302 (123)  0.1267 (124)
          -0.2004 (128) -0.1190 (130)
 CRD 27=  -0.1698 ( 16)  0.3475 ( 17)  0.1052 ( 29) -0.1278 ( 36) -0.1342 ( 48)
           0.1013 ( 56) -0.1418 ( 57) -0.1232 ( 61) -0.1438 ( 68)  0.1025 ( 71)
           0.1321 ( 72)  0.1675 ( 73)  0.1047 ( 81)  0.1185 ( 82)  0.1020 ( 83)
          -0.1062 ( 84)  0.1180 ( 86)  0.1348 ( 87)  0.1145 ( 89)  0.1209 ( 92)
           0.1041 ( 94)  0.1007 ( 96)  0.1538 ( 99) -0.1325 (100) -0.1226 (101)
          -0.1282 (110) -0.1561 (114) -0.1661 (117)  0.1793 (119)  0.1655 (120)
          -0.1797 (122)  0.2147 (123)  0.2009 (124)  0.1359 (127) -0.1002 (128)
           0.1497 (129)
 CRD 28=  -0.1232 (  7)  0.1167 (  9) -0.1109 ( 17)  0.6034 ( 18)  0.1398 ( 35)
           0.1183 ( 36)  0.1875 ( 41) -0.1040 ( 49)  0.1862 ( 51) -0.1250 ( 54)
          -0.1125 ( 55) -0.1356 ( 56) -0.1429 ( 58) -0.1127 ( 67)  0.1082 ( 69)
           0.1310 ( 72) -0.1070 ( 73) -0.1139 (113)  0.1253 (117)  0.1221 (119)
           0.2260 (120)  0.1331 (121) -0.1159 (123) -0.1049 (125) -0.1463 (130)
 CRD 29=  -0.1919 ( 14) -0.1037 ( 33)  0.1376 ( 54) -0.2292 ( 68) -0.1061 ( 80)
          -0.1015 ( 82) -0.1747 ( 84) -0.3020 ( 97)  0.1039 (103) -0.1058 (111)
          -0.2638 (112) -0.1400 (119) -0.1446 (121) -0.2685 (122) -0.3696 (126)
          -0.3044 (128) -0.2975 (130)
 CRD 30=  -0.1062 ( 10)  0.1318 ( 11) -0.1497 ( 13)  0.5505 ( 18) -0.1584 ( 27)
          -0.1318 ( 28) -0.1251 ( 35) -0.2640 ( 41)  0.1067 ( 45) -0.2529 ( 51)
           0.1151 ( 54)  0.1230 ( 55)  0.1681 ( 57)  0.1227 ( 58)  0.1335 ( 59)
          -0.1412 ( 72) -0.1608 ( 81)  0.1098 ( 82) -0.3041 (120) -0.1301 (121)
           0.1218 (123) -0.1488 (124) -0.1740 (127)
 CRD 31=  -0.1685 (  3)  0.1510 (  4)  0.2047 (  5) -0.2248 (  6) -0.2387 (  7)
           0.1719 (  9) -0.1644 ( 10)  0.2214 ( 11)  0.1122 ( 14) -0.1338 ( 17)
           0.1511 ( 31) -0.1607 ( 32) -0.1058 ( 45) -0.1162 ( 47)  0.1018 ( 49)
          -0.1530 ( 55)  0.1373 ( 58) -0.1068 ( 61)  0.1101 ( 66)  0.1074 ( 70)
          -0.1311 ( 78)  0.1583 ( 86)  0.1136 ( 87) -0.1493 ( 95) -0.1167 ( 96)
           0.1305 ( 99) -0.1095 (102) -0.1434 (104) -0.1119 (106) -0.1457 (108)
          -0.1459 (111)  0.1121 (113)  0.1714 (115)  0.1428 (118) -0.1941 (126)
          -0.1318 (128)
 CRD 32=  -0.1343 (  4) -0.2057 (  6)  0.1420 (  8)  0.1007 (  9) -0.1176 ( 11)
           0.1559 ( 12)  0.1316 ( 16) -0.1074 ( 17)  0.1795 ( 20)  0.1478 ( 21)
          -0.2196 ( 30) -0.1554 ( 31)  0.1926 ( 38) -0.1228 ( 39) -0.1528 ( 40)
           0.1852 ( 46) -0.1055 ( 47) -0.1291 ( 70)  0.1438 ( 75) -0.3431 ( 85)
          -0.1904 ( 88)  0.2618 ( 93)  0.1416 ( 95)  0.1476 (101)  0.1387 (113)
           0.1164 (114) -0.1074 (116) -0.1297 (117) -0.1823 (118)
 CRD 33=  -0.1396 (  3) -0.2281 (  5)  0.1664 (  8) -0.1139 (  9)  0.1072 ( 10)
           0.1439 ( 12)  0.1020 ( 13)  0.1023 ( 17)  0.1757 ( 19)  0.1437 ( 24)
          -0.1458 ( 32) -0.2206 ( 37)  0.1938 ( 38) -0.1144 ( 40) -0.1435 ( 47)
          -0.1248 ( 50)  0.1823 ( 53) -0.1175 ( 78)  0.1527 ( 83)  0.1308 ( 86)
           0.2595 ( 87) -0.1966 ( 94) -0.3381 ( 96)  0.1467 (102)  0.1115 (103)
           0.1444 (105) -0.1277 (107) -0.1555 (108)
 CRD 34=   0.2869 (  3) -0.2890 (  4) -0.1073 (  6) -0.2351 (  8)  0.2589 ( 12)
           0.1335 ( 13) -0.1421 ( 16)  0.1599 ( 19) -0.1509 ( 20) -0.1218 ( 21)
           0.1317 ( 24) -0.1637 ( 39) -0.1474 ( 40)  0.1343 ( 47)  0.1559 ( 50)
           0.1211 ( 60) -0.1227 ( 65) -0.1144 ( 70)  0.1241 ( 75)  0.1061 ( 78)
          -0.1150 ( 83) -0.1851 ( 85)  0.1295 ( 89) -0.1295 ( 91)  0.1091 ( 93)
           0.1675 ( 96) -0.2021 (108)  0.1004 (110)  0.1957 (118)  0.1077 (122)
 CRD 35=   0.1075 (  3)  0.1365 (  4) -0.2366 (  7) -0.2519 ( 11)  0.3244 ( 15)
          -0.1363 ( 21) -0.1290 ( 24) -0.1476 ( 41) -0.1021 ( 44)  0.1327 ( 46)
          -0.1175 ( 48) -0.1901 ( 51)  0.1233 ( 53)  0.1252 ( 55)  0.1218 ( 58)
          -0.1370 ( 61) -0.1395 ( 66) -0.1558 ( 70) -0.1381 ( 78) -0.1199 ( 85)
          -0.1091 ( 89) -0.1320 ( 91) -0.1151 ( 96) -0.1029 ( 98)  0.1299 (100)
           0.1290 (106)  0.2414 (108)  0.1282 (109) -0.1195 (110)  0.1358 (116)
           0.2272 (118) -0.1101 (128)
 CRD 36=  -0.1700 (  3)  0.1461 (  4)  0.1724 (  7) -0.1376 ( 11) -0.1024 ( 13)
           0.1032 ( 14)  0.1097 ( 16) -0.1041 ( 17)  0.1207 ( 19) -0.1206 ( 20)
           0.1871 ( 30)  0.1610 ( 31) -0.1509 ( 32)  0.1044 ( 36) -0.1823 ( 37)
          -0.1559 ( 40)  0.1234 ( 46)  0.1671 ( 47) -0.1512 ( 53) -0.1508 ( 70)
          -0.1048 ( 73)  0.1715 ( 78)  0.1787 ( 88)  0.2552 ( 89)  0.2380 ( 90)
          -0.2444 ( 91) -0.2340 ( 92) -0.1754 ( 94)  0.1102 (104)  0.1036 (108)
          -0.1214 (118)
 CRD 37=   0.2594 (  3)  0.2496 (  4) -0.1136 (  6)  0.1922 (  8) -0.1066 (  9)
          -0.1102 ( 10)  0.1672 ( 12) -0.1118 ( 16) -0.1565 ( 19) -0.1547 ( 20)
          -0.1604 ( 25)  0.1790 ( 38)  0.3281 ( 41)  0.1073 ( 46)  0.3283 ( 51)
           0.1094 ( 86)  0.1380 ( 87) -0.1277 ( 88)  0.1466 ( 89)  0.1266 ( 91)
           0.1245 ( 93) -0.1160 ( 94) -0.1213 (101) -0.1190 (105) -0.1288 (120)
 CRD 38=   0.1364 (  3) -0.1280 (  4) -0.2141 (  5)  0.2095 (  6)  0.1558 ( 14)
          -0.1604 ( 17) -0.1354 ( 21)  0.1389 ( 24) -0.1656 ( 31)  0.1723 ( 32)
           0.1072 ( 58) -0.1993 ( 61)  0.1983 ( 66) -0.1514 ( 73) -0.1001 ( 76)
           0.1516 ( 82)  0.1007 ( 85) -0.1356 ( 86) -0.1306 ( 87) -0.1571 ( 89)
           0.1685 ( 91)  0.1446 ( 93)  0.1314 ( 95) -0.1000 ( 96)  0.1095 ( 99)
           0.1746 (103) -0.1100 (111) -0.1940 (114) -0.1213 (126)
 CRD 39=   0.1470 (  5)  0.1408 (  6)  0.1735 (  8) -0.1609 (  9) -0.1612 ( 10)
           0.1698 ( 12) -0.1056 ( 22) -0.1044 ( 23)  0.1849 ( 25) -0.2259 ( 38)
           0.1648 ( 46)  0.1628 ( 53)  0.2060 ( 75)  0.2042 ( 83) -0.1324 ( 86)
           0.1277 ( 88) -0.2101 ( 89)  0.3199 ( 90) -0.2144 ( 91)  0.3201 ( 92)
           0.1324 ( 94) -0.1413 ( 95) -0.1236 (101) -0.1033 (102) -0.1233 (105)
          -0.1013 (113)
 CRD 40=  -0.1047 (  4)  0.2898 (  8)  0.1389 (  9)  0.1419 ( 10)  0.2479 ( 12)
          -0.1262 ( 27) -0.1110 ( 35) -0.1211 ( 38)  0.3168 ( 41)  0.3312 ( 51)
           0.1464 ( 73)  0.1218 ( 74)  0.1489 ( 82) -0.1323 ( 87)  0.1033 ( 88)
          -0.1376 ( 93)  0.1151 ( 94)  0.1301 (101)  0.1255 (102)  0.1042 (103)
           0.1246 (104)  0.1451 (105)  0.1071 (113)  0.1096 (114)  0.1250 (115)
          -0.1169 (120)  0.1734 (123)
 CRD 41=   0.1316 (  3) -0.1335 (  4)  0.3151 (  8) -0.3429 ( 12) -0.2014 ( 22)
           0.1910 ( 23) -0.1154 ( 27)  0.1254 ( 35) -0.1093 ( 40)  0.1085 ( 47)
          -0.1274 ( 56)  0.1173 ( 59) -0.1162 ( 63)  0.1015 ( 67)  0.1129 ( 72)
           0.1382 ( 76) -0.1383 ( 79) -0.1184 ( 81)  0.1173 ( 87) -0.1278 ( 90)
           0.1285 ( 92) -0.1129 ( 93) -0.1310 (101)  0.1404 (104)  0.1296 (105)
          -0.1091 (115)  0.1513 (119) -0.1700 (124) -0.1439 (125)  0.1276 (129)
 CRD 42=  -0.1150 (  5)  0.1093 (  6)  0.1707 (  8)  0.1477 (  9) -0.1439 ( 10)
          -0.1813 ( 12)  0.1067 ( 13) -0.1056 ( 19)  0.1113 ( 20) -0.1768 ( 27)
           0.1764 ( 29)  0.1145 ( 30) -0.1986 ( 33)  0.1835 ( 35) -0.1164 ( 37)
           0.1234 ( 46) -0.1141 ( 53)  0.1019 ( 63)  0.1129 ( 64) -0.1267 ( 70)
           0.1797 ( 71)  0.1996 ( 72)  0.1082 ( 73) -0.1423 ( 76)  0.1124 ( 78)
           0.1453 ( 79) -0.2017 ( 80) -0.2181 ( 81) -0.1198 ( 82) -0.1354 ( 87)
           0.1745 ( 90) -0.1689 ( 92)  0.1400 ( 93) -0.1480 (103) -0.1603 (104)
           0.1494 (114)  0.1264 (115)  0.1018 (119)
 CRD 43=  -0.1268 ( 13)  0.1233 ( 14)  0.1023 ( 15) -0.1159 ( 16)  0.1634 ( 17)
           0.1510 ( 28)  0.1016 ( 29)  0.1530 ( 36) -0.1616 ( 44) -0.1789 ( 48)
          -0.1567 ( 62) -0.1126 ( 63) -0.1164 ( 64) -0.1048 ( 67)  0.1004 ( 71)
           0.1966 ( 74)  0.1188 ( 84)  0.1222 ( 97) -0.1613 ( 98) -0.1903 ( 99)
          -0.1532 (100)  0.1029 (103)  0.1777 (104) -0.1739 (106) -0.1777 (109)
          -0.1792 (110) -0.1578 (111)  0.1069 (112)  0.1683 (114)  0.1726 (115)
          -0.1013 (116) -0.1527 (119) -0.2558 (123) -0.1309 (124) -0.1154 (125)
          -0.1404 (129)
 CRD 44=  -0.1216 ( 11)  0.1189 ( 14)  0.1303 ( 34)  0.1320 ( 39) -0.1355 ( 55)
           0.2101 ( 63) -0.1644 ( 65) -0.1186 ( 67)  0.1515 ( 68)  0.1171 ( 69)
           0.1225 ( 76) -0.3210 ( 77) -0.2885 ( 84)  0.2844 (102)  0.1496 (103)
           0.3636 (106)  0.2288 (107) -0.1319 (111) -0.1221 (113) -0.1906 (116)
 CRD 45=  -0.1147 (  7) -0.2234 ( 15)  0.1228 ( 26)  0.1269 ( 50) -0.1307 ( 58)
          -0.1600 ( 60)  0.2446 ( 67) -0.3102 ( 68) -0.3364 ( 69) -0.1324 ( 77)
          -0.1105 ( 84) -0.1147 ( 99)  0.1054 (102)  0.1262 (106)  0.2799 (113)
           0.1171 (114) -0.1247 (115)  0.3863 (116)  0.2235 (117)

 THE DETERMINANT OF THE G MATRIX IS 10**(    -8)


                     --------------------
                     INTERNAL COORDINATES
                     --------------------

                 - - ATOMS - -         COORDINATE      COORDINATE
 NO.   TYPE    I  J  K  L  M  N        (BOHR,RAD)       (ANG,DEG)
 ----------------------------------------------------------------
   1 STRETCH   6 16                     7.5016267       3.9696902
   2 STRETCH   9 16                     7.5808092       4.0115917
   3 STRETCH   1  2                     2.9030566       1.5362315
   4 STRETCH   1  3                     2.9030893       1.5362488
   5 STRETCH   1  4                     2.1012114       1.1119132
   6 STRETCH   1  5                     2.1012067       1.1119108
   7 STRETCH   2 10                     2.0981444       1.1102903
   8 STRETCH   2  9                     2.8726887       1.5201615
   9 STRETCH   2 11                     2.1073773       1.1151761
  10 STRETCH   3  8                     2.1073666       1.1151705
  11 STRETCH   3  7                     2.0981211       1.1102779
  12 STRETCH   3  6                     2.8726595       1.5201461
  13 STRETCH   6 13                     2.0988559       1.1106668
  14 STRETCH   6 12                     2.1055012       1.1141833
  15 STRETCH   6  9                     2.8813435       1.5247414
  16 STRETCH   9 15                     2.0986335       1.1105491
  17 STRETCH   9 14                     2.1055003       1.1141829
  18 STRETCH  16 17                     2.8889673       1.5287758
  19 BEND      1  3  7                  2.0087892     115.0951443
  20 BEND      1  2 10                  2.0088828     115.1005075
  21 BEND      1  2 11                  1.8704993     107.1717132
  22 BEND      1  2  9                  1.8252890     104.5813539
  23 BEND      1  3  6                  1.8251947     104.5759556
  24 BEND      1  3  8                  1.8705399     107.1740443
  25 BEND      2  1  3                  1.8296922     104.8336412
  26 BEND      2  9  6                  1.7588402     100.7741180
  27 BEND      2  9 14                  1.9150544     109.7245353
  28 BEND      2  9 15                  1.9786404     113.3677427
  29 BEND      2  9 16                  2.7362768     156.7771125
  30 BEND      2  1  4                  1.8885315     108.2048838
  31 BEND      2  1  5                  1.9741180     113.1086269
  32 BEND      3  1  4                  1.9739678     113.1000256
  33 BEND      3  6 16                  2.7016504     154.7931665
  34 BEND      3  6  9                  1.7588296     100.7735135
  35 BEND      3  6 12                  1.9150081     109.7218813
  36 BEND      3  6 13                  1.9788184     113.3779412
  37 BEND      3  1  5                  1.8886174     108.2098038
  38 BEND      4  1  5                  1.9094343     109.4025294
  39 BEND      6  3  7                  2.0357173     116.6380121
  40 BEND      6  3  8                  1.8388105     105.3560801
  41 BEND      6 16 17                  1.4577017      83.5201549
  42 BEND      6 16  9                  0.3843008      22.0188124
  43 BEND      6  9 16                  1.3516674      77.4448351
  44 BEND      6  9 14                  1.9137717     109.6510417
  45 BEND      6  9 15                  1.9923536     114.1534498
  46 BEND      7  3  8                  1.8720481     107.2604556
  47 BEND      9  2 11                  1.8387149     105.3506033
  48 BEND      9  6 12                  1.9137667     109.6507566
  49 BEND      9  6 13                  1.9923318     114.1522021
  50 BEND      9  2 10                  2.0356881     116.6363384
  51 BEND      9 16 17                  1.0942121      62.6937336
  52 BEND      9  6 16                  1.4056245      80.5363525
  53 BEND     10  2 11                  1.8720068     107.2580909
  54 BEND     12  6 16                  1.6251241      93.1127504
  55 BEND     12  6 13                  1.9007588     108.9054558
  56 BEND     13  6 16                  0.8074128      46.2613461
  57 BEND     14  9 16                  1.6119654      92.3588137
  58 BEND     14  9 15                  1.9008494     108.9106491
  59 BEND     15  9 16                  0.8696057      49.8247362
  60 TORSION   1  2  9 14              -1.3194015     -75.5961392
  61 TORSION   1  2  9 15               2.8344227     162.4004580
  62 TORSION   1  2  9  6               0.6979811      39.9913698
  63 TORSION   1  3  6 16               2.2804129     130.6580349
  64 TORSION   1  3  6  9               0.6983694      40.0136197
  65 TORSION   1  3  6 12              -1.3189847     -75.5722564
  66 TORSION   1  3  6 13               2.8348672     162.4259269
  67 TORSION   1  2  9 16               2.1508144     123.2325903
  68 TORSION   2  9 16 17               1.2497488      71.6053313
  69 TORSION   2  9 16  6              -1.5374567     -88.0897789
  70 TORSION   2  1  3  8               1.6780680      96.1462160
  71 TORSION   2  9  6 16               2.7288080     156.3491795
  72 TORSION   2  9  6 12               1.1590792      66.4103475
  73 TORSION   2  9  6 13              -2.9862286    -171.0982944
  74 TORSION   2  9  6  3              -0.8592014     -49.2286113
  75 TORSION   2  1  3  7              -2.5248966    -144.6659212
  76 TORSION   2  1  3  6              -0.2682497     -15.3695772
  77 TORSION   3  6 16  9              -1.6617646     -95.2120979
  78 TORSION   3  1  2 11               1.6785938      96.1763384
  79 TORSION   3  1  2  9              -0.2676415     -15.3347264
  80 TORSION   3  6  9 16               2.6951760     154.4222092
  81 TORSION   3  6  9 14               1.1591385      66.4137467
  82 TORSION   3  6  9 15              -2.9860317    -171.0870154
  83 TORSION   3  1  2 10              -2.5243943    -144.6371398
  84 TORSION   3  6 16 17              -1.9773039    -113.2911697
  85 TORSION   4  1  3  8              -2.5514521    -146.1874387
  86 TORSION   4  1  2  9              -2.3786865    -136.2886973
  87 TORSION   4  1  2 10               1.6477460      94.4088894
  88 TORSION   4  1  3  6               1.7854154     102.2967681
  89 TORSION   4  1  2 11              -0.4324513     -24.7776324
  90 TORSION   4  1  3  7              -0.4712315     -26.9995759
  91 TORSION   5  1  3  8              -0.4331958     -24.8202921
  92 TORSION   5  1  2 10              -0.4705471     -26.9603628
  93 TORSION   5  1  3  7               1.6470248      94.3675707
  94 TORSION   5  1  2  9               1.7862057     102.3420505
  95 TORSION   5  1  3  6              -2.3795136    -136.3360853
  96 TORSION   5  1  2 11              -2.5507443    -146.1468846
  97 TORSION   6  9 16 17               2.7872055     159.6951102
  98 TORSION   6 16  9 14               1.9130891     109.6119336
  99 TORSION   6 16  9 15              -2.3989459    -137.4494728
 100 TORSION   6  9  2 11              -1.2710149     -72.8237890
 101 TORSION   6  9  2 10               2.9385905     168.3688318
 102 TORSION   7  3  6 16              -1.7623464    -100.9750097
 103 TORSION   7  3  6 13              -1.2078921     -69.2071178
 104 TORSION   7  3  6 12               0.9214413      52.7946990
 105 TORSION   7  3  6  9               2.9387954     168.3805750
 106 TORSION   8  3  6 16               0.3113721      17.8403078
 107 TORSION   8  3  6 13               0.8658264      49.6081997
 108 TORSION   8  3  6 12               2.9951598     171.6100165
 109 TORSION   8  3  6  9              -1.2706714     -72.8041074
 110 TORSION   9 16  6 12               1.9096062     109.4123749
 111 TORSION   9 16  6 13              -2.3944527    -137.1920339
 112 TORSION   9  6 16 17              -0.3155393     -18.0790718
 113 TORSION  10  2  9 16              -1.8917615    -108.3899478
 114 TORSION  10  2  9 15              -1.2081532     -69.2220801
 115 TORSION  10  2  9 14               0.9212079      52.7813228
 116 TORSION  11  2  9 16               0.1818185      10.4174314
 117 TORSION  11  2  9 15               0.8654267      49.5852991
 118 TORSION  11  2  9 14               2.9947878     171.5887020
 119 TORSION  12  6  9 15              -0.9677512     -55.4480565
 120 TORSION  12  6  9 14              -3.1057662    -177.9472945
 121 TORSION  12  6  9 16              -1.5697287     -89.9388319
 122 TORSION  12  6 16 17               1.5940669      91.3333032
 123 TORSION  13  6  9 15               1.1701264      67.0433015
 124 TORSION  13  6  9 14              -0.9678887     -55.4559364
 125 TORSION  13  6  9 16               0.5681488      32.5525261
 126 TORSION  13  6 16 17              -2.7099920    -155.2711057
 127 TORSION  14  9  6 16              -1.5360374     -88.0084625
 128 TORSION  14  9 16 17              -1.5828907     -90.6929562
 129 TORSION  15  9  6 16               0.6019776      34.4907754
 130 TORSION  15  9 16 17               0.3882596      22.2456374

     ------------------------------------------
     THE POINT GROUP IS C1 , NAXIS= 0, ORDER= 1
     ------------------------------------------

     DIMENSIONS OF THE SYMMETRY SUBSPACES ARE
 A   =   55

 ..... DONE SETTING UP THE RUN .....
 STEP CPU TIME =     0.06 TOTAL CPU TIME =          0.1 (      0.0 MIN)
 TOTAL WALL CLOCK TIME=          0.1 SECONDS, CPU UTILIZATION IS    75.00%


          -----------------------------
          STATIONARY POINT LOCATION RUN
          -----------------------------


           ** GEOMETRY CONSTRAINTS ARE BEING APPLIED. **

          TRANSFORMING DISPLACEMENT FROM INTERNALS TO CARTESIANS
          THE ROOT MEAN SQUARE ERROR IN ITERATION   1 IS   0.00000101
          THE ROOT MEAN SQUARE ERROR IN ITERATION   2 IS   0.00000000
 WARNING! THE RADIUS IN CARTESIANS IS    0.00763
 OBTAINING INITIAL HESSIAN, HESS=CALC    

     ---------------------------------
     HESSIAN MATRIX CONTROL PARAMETERS
     ---------------------------------
     METHOD=ANALYTIC   NVIB  =       2   VIBSIZ= 0.01000
     RDHESS=       F   PURIFY=       F   PRTIFC=       F
     VIBANL=       F   DECOMP=       F   PROJCT=       F
     SCLFAC= 1.00000   PRTSCN=       F   NPRT  =       0
     PULCOR=       F   NPUN  =       0   REDOVB=       T
     HSSTYP=GENERAL 
 Old integral subroutine is used

     ------------------------------
     CPHF RESPONSE SOLUTION OPTIONS
     ------------------------------
     POLAR  =       F     NWORD  =       0
     CPHF   =AO      

          ********************
          1 ELECTRON INTEGRALS
          ********************
 ...... END OF ONE-ELECTRON INTEGRALS ......
 STEP CPU TIME =     0.03 TOTAL CPU TIME =          0.1 (      0.0 MIN)
 TOTAL WALL CLOCK TIME=          0.1 SECONDS, CPU UTILIZATION IS    75.00%

          -------------
          GUESS OPTIONS
          -------------
          GUESS =HUCKEL            NORB  =       0          NORDER=       0
          MIX   =       F          PRTMO =       F          PUNMO =       F
          TOLZ  = 1.0E-08          TOLE  = 1.0E-05
          SYMDEN=       F          PURIFY=       F

 INITIAL GUESS ORBITALS GENERATED BY HUCKEL   ROUTINE.
 HUCKEL GUESS REQUIRES     45466 WORDS.

 SYMMETRIES FOR INITIAL GUESS ORBITALS FOLLOW.   BOTH SET(S).
    38 ORBITALS ARE OCCUPIED (   19 CORE ORBITALS).
    20=A       21=A       22=A       23=A       24=A       25=A       26=A   
    27=A       28=A       29=A       30=A       31=A       32=A       33=A   
    34=A       35=A       36=A       37=A       38=A       39=A       40=A   
    41=A       42=A       43=A       44=A       45=A       46=A       47=A   
    48=A   
 ...... END OF INITIAL ORBITAL SELECTION ......
 STEP CPU TIME =     0.03 TOTAL CPU TIME =          0.1 (      0.0 MIN)
 TOTAL WALL CLOCK TIME=          0.1 SECONDS, CPU UTILIZATION IS    85.71%

                    ----------------------
                    AO INTEGRAL TECHNOLOGY
                    ----------------------
     S,P,L SHELL ROTATED AXIS INTEGRALS, REPROGRAMMED BY
        KAZUYA ISHIMURA (IMS) AND JOSE SIERRA (SYNSTAR).
     S,P,D,L SHELL ROTATED AXIS INTEGRALS PROGRAMMED BY
        KAZUYA ISHIMURA (INSTITUTE FOR MOLECULAR SCIENCE).
     S,P,D,F,G SHELL TO TOTAL QUARTET ANGULAR MOMENTUM SUM 5,
        ERIC PROGRAM BY GRAHAM FLETCHER (ELORET AND NASA ADVANCED
        SUPERCOMPUTING DIVISION, AMES RESEARCH CENTER).
     S,P,D,F,G,L SHELL GENERAL RYS QUADRATURE PROGRAMMED BY
        MICHEL DUPUIS (PACIFIC NORTHWEST NATIONAL LABORATORY).

          --------------------
          2 ELECTRON INTEGRALS
          --------------------

 THE -PK- OPTION IS OFF, THE INTEGRALS ARE NOT IN SUPERMATRIX FORM.
 STORING   15000 INTEGRALS/RECORD ON DISK, USING 12 BYTES/INTEGRAL.
 TWO ELECTRON INTEGRAL EVALUATION REQUIRES   90747 WORDS OF MEMORY.
 SCHWARZ INEQUALITY OVERHEAD:      1462 INTEGRALS, T=        0.01
 II,JST,KST,LST =  1  1  1  1 NREC =         1 INTLOC =    1
 II,JST,KST,LST =  2  1  1  1 NREC =         1 INTLOC =    2
 II,JST,KST,LST =  3  1  1  1 NREC =         1 INTLOC =   34
 II,JST,KST,LST =  4  1  1  1 NREC =         1 INTLOC =  141
 II,JST,KST,LST =  5  1  1  1 NREC =         1 INTLOC = 1360
 II,JST,KST,LST =  6  1  1  1 NREC =         1 INTLOC = 1932
 II,JST,KST,LST =  7  1  1  1 NREC =         1 INTLOC = 6793
 II,JST,KST,LST =  8  1  1  1 NREC =         1 INTLOC = 8828
 II,JST,KST,LST =  9  1  1  1 NREC =         1 INTLOC =11271
 II,JST,KST,LST = 10  1  1  1 NREC =         1 INTLOC =13740
 II,JST,KST,LST = 11  1  1  1 NREC =         3 INTLOC =  713
 II,JST,KST,LST = 12  1  1  1 NREC =         3 INTLOC = 6705
 II,JST,KST,LST = 13  1  1  1 NREC =         3 INTLOC =13529
 II,JST,KST,LST = 14  1  1  1 NREC =         4 INTLOC = 5257
 II,JST,KST,LST = 15  1  1  1 NREC =         7 INTLOC = 1210
 II,JST,KST,LST = 16  1  1  1 NREC =         7 INTLOC =14483
 II,JST,KST,LST = 17  1  1  1 NREC =         8 INTLOC =14167
 II,JST,KST,LST = 18  1  1  1 NREC =        10 INTLOC =  328
 II,JST,KST,LST = 19  1  1  1 NREC =        11 INTLOC = 3043
 II,JST,KST,LST = 20  1  1  1 NREC =        12 INTLOC = 7455
 II,JST,KST,LST = 21  1  1  1 NREC =        13 INTLOC =13624
 II,JST,KST,LST = 22  1  1  1 NREC =        14 INTLOC = 1509
 II,JST,KST,LST = 23  1  1  1 NREC =        15 INTLOC = 6006
 II,JST,KST,LST = 24  1  1  1 NREC =        18 INTLOC = 4849
 II,JST,KST,LST = 25  1  1  1 NREC =        24 INTLOC = 3646
 II,JST,KST,LST = 26  1  1  1 NREC =        33 INTLOC = 1290
 SCHWARZ INEQUALITY TEST SKIPPED       22892 INTEGRAL BLOCKS.
 TOTAL NUMBER OF NONZERO TWO-ELECTRON INTEGRALS =              528533
         36 INTEGRAL RECORDS WERE STORED ON DISK FILE  8.
  ...... END OF TWO-ELECTRON INTEGRALS .....
 STEP CPU TIME =     0.15 TOTAL CPU TIME =          0.3 (      0.0 MIN)
 TOTAL WALL CLOCK TIME=          0.3 SECONDS, CPU UTILIZATION IS    93.10%

          --------------------------
                 RHF SCF CALCULATION
          --------------------------

     NUCLEAR ENERGY =       358.3980893078
     MAXIT =   30     NPUNCH=    2
     EXTRAP=T  DAMP=F  SHIFT=F  RSTRCT=F  DIIS=F  DEM=F  SOSCF=T
     DENSITY MATRIX CONV=  1.00E-05
     SOSCF WILL OPTIMIZE     646 ORBITAL ROTATIONS, SOGTOL=   0.250
     MEMORY REQUIRED FOR RHF ITERS=     54529 WORDS.

 ITER EX DEM     TOTAL ENERGY        E CHANGE  DENSITY CHANGE     ORB. GRAD
   1  0  0    -2738.8825756529 -2738.8825756529  12.155627192   0.000000000
          ---------------START SECOND ORDER SCF---------------
   2  1  0    -2739.4104455645    -0.5278699115   0.189029946   0.033132300
   3  2  0    -2739.4191331732    -0.0086876087   0.023555302   0.006993529
   4  3  0    -2739.4196530556    -0.0005198825   0.009559729   0.001702439
   5  4  0    -2739.4196559246    -0.0000028690   0.000304627   0.000101445
   6  5  0    -2739.4196560212    -0.0000000966   0.000133810   0.000027220
   7  6  0    -2739.4196560230    -0.0000000018   0.000020549   0.000003221
   8  7  0    -2739.4196560231    -0.0000000001   0.000000977   0.000000415
   9  8  0    -2739.4196560231    -0.0000000000   0.000000920   0.000000174

          -----------------
          DENSITY CONVERGED
          -----------------
     TIME TO FORM FOCK OPERATORS=       0.1 SECONDS (       0.0 SEC/ITER)
     TIME TO SOLVE SCF EQUATIONS=       0.0 SECONDS (       0.0 SEC/ITER)

 FINAL RHF ENERGY IS    -2739.4196560231 AFTER   9 ITERATIONS

          ------------
          EIGENVECTORS
          ------------

                      1          2          3          4          5
                 -484.8087   -63.7190   -57.8503   -57.8478   -57.8478
                     A          A          A          A          A   
    1  C  1  S   -0.000000  -0.000000  -0.000000   0.000000  -0.000000
    2  C  1  S    0.000000   0.000003  -0.000000  -0.000000   0.000000
    3  C  1  X   -0.000000  -0.000000   0.000000   0.000000  -0.000000
    4  C  1  Y   -0.000000  -0.000003  -0.000000   0.000000  -0.000000
    5  C  1  Z   -0.000000  -0.000001  -0.000000   0.000000  -0.000000
    6  C  2  S    0.000000   0.000001  -0.000000  -0.000000   0.000000
    7  C  2  S   -0.000000  -0.000010   0.000000   0.000002  -0.000000
    8  C  2  X   -0.000000  -0.000001  -0.000000   0.000000  -0.000000
    9  C  2  Y    0.000000   0.000006  -0.000000  -0.000001   0.000000
   10  C  2  Z   -0.000000  -0.000003   0.000000   0.000000  -0.000000
   11  C  3  S    0.000000   0.000002  -0.000000  -0.000000   0.000000
   12  C  3  S   -0.000000  -0.000019   0.000000   0.000002  -0.000001
   13  C  3  X   -0.000000  -0.000002   0.000000   0.000000  -0.000000
   14  C  3  Y    0.000000   0.000012  -0.000000  -0.000001   0.000000
   15  C  3  Z    0.000000   0.000002  -0.000000  -0.000000   0.000000
   16  H  4  S   -0.000000  -0.000000   0.000000   0.000000   0.000000
   17  H  5  S    0.000000   0.000000   0.000000   0.000000  -0.000000
   18  C  6  S   -0.000000  -0.000014  -0.000000   0.000001  -0.000000
   19  C  6  S    0.000001   0.000133   0.000002  -0.000015   0.000002
   20  C  6  X   -0.000000  -0.000076  -0.000001   0.000009  -0.000002
   21  C  6  Y   -0.000000  -0.000048  -0.000002   0.000005   0.000000
   22  C  6  Z    0.000000   0.000033   0.000001  -0.000004   0.000001
   23  H  7  S    0.000000   0.000003   0.000000  -0.000000   0.000000
   24  H  8  S    0.000000   0.000007   0.000000  -0.000001   0.000000
   25  C  9  S   -0.000000  -0.000003  -0.000000   0.000001  -0.000000
   26  C  9  S    0.000000   0.000026   0.000001  -0.000008   0.000002
   27  C  9  X    0.000000   0.000023  -0.000000  -0.000006   0.000001
   28  C  9  Y    0.000000   0.000009  -0.000001   0.000001  -0.000001
   29  C  9  Z   -0.000000  -0.000007  -0.000000   0.000002  -0.000001
   30  H 10  S    0.000000   0.000002  -0.000000  -0.000000   0.000000
   31  H 11  S    0.000000   0.000003   0.000000  -0.000001   0.000000
   32  H 12  S   -0.000000  -0.000015   0.000000   0.000001  -0.000001
   33  H 13  S   -0.000002  -0.000279  -0.000005   0.000032  -0.000005
   34  H 14  S   -0.000000  -0.000006   0.000000   0.000001   0.000001
   35  H 15  S   -0.000000  -0.000041  -0.000003   0.000018  -0.000006
   36  BR16  S    0.994692   0.419612   0.000715  -0.000001   0.000001
   37  BR16  S    0.014823  -1.059866  -0.001821   0.000001  -0.000001
   38  BR16  X    0.000007  -0.001472   0.945279  -0.303660  -0.001070
   39  BR16  Y    0.000002  -0.000460   0.297025   0.925423  -0.202983
   40  BR16  Z    0.000000  -0.000099   0.063073   0.192937   0.971925
   41  BR16  S   -0.073389   2.442674   0.003944  -0.000004   0.000003
   42  BR16  X   -0.000003  -0.000396   0.017809  -0.005685  -0.000020
   43  BR16  Y   -0.000001  -0.000125   0.005596   0.017327  -0.003800
   44  BR16  Z   -0.000000  -0.000027   0.001188   0.003612   0.018197
   45  BR16 XX    0.032041  -1.127375  -0.001714  -0.000041  -0.000002
   46  BR16 YY    0.032040  -1.127353  -0.001827   0.000043  -0.000011
   47  BR16 ZZ    0.032040  -1.127351  -0.001839   0.000004   0.000008
   48  BR16 XY    0.000000  -0.000009   0.000045   0.000068  -0.000017
   49  BR16 XZ    0.000000  -0.000002   0.000010   0.000014   0.000080
   50  BR16 YZ    0.000000  -0.000001   0.000003   0.000010   0.000024
   51  BR16  S    0.000094   0.018825  -0.000138  -0.000000   0.000000
   52  BR16  X    0.000009   0.001595  -0.001421   0.000395   0.000001
   53  BR16  Y    0.000003   0.000507  -0.000446  -0.001204   0.000264
   54  BR16  Z    0.000001   0.000107  -0.000095  -0.000251  -0.001263
   55  H 17  S   -0.000022  -0.004056   0.000463  -0.000001   0.000000

                      6          7          8          9         10
                  -11.0375   -11.0349   -11.0343   -11.0342   -11.0330
                     A          A          A          A          A   
    1  C  1  S   -0.008364  -0.238450   0.906658   0.299783   0.123358
    2  C  1  S    0.000150  -0.014506   0.033064   0.011236  -0.001233
    3  C  1  X    0.000117  -0.003306  -0.000932  -0.001032   0.003113
    4  C  1  Y   -0.000071   0.002405  -0.000069  -0.000045   0.002655
    5  C  1  Z   -0.000172   0.000459   0.000082   0.000285  -0.000442
    6  C  2  S   -0.042183   0.958136   0.196865   0.156808   0.029264
    7  C  2  S   -0.007373   0.037006   0.002094   0.003813   0.000480
    8  C  2  X    0.001109  -0.001286   0.002866   0.001335   0.000464
    9  C  2  Y    0.003954   0.000381  -0.002368  -0.000586  -0.000202
   10  C  2  Z   -0.001332  -0.000471  -0.000657  -0.000066  -0.000065
   11  C  3  S   -0.013334   0.009977  -0.081823  -0.144058   0.977896
   12  C  3  S   -0.000311   0.002471  -0.006247  -0.012528   0.035231
   13  C  3  X   -0.000303   0.000880  -0.002448  -0.002393  -0.000026
   14  C  3  Y   -0.000053   0.000366  -0.003795   0.002762  -0.000245
   15  C  3  Z   -0.000299  -0.000251  -0.000090   0.001347   0.000734
   16  H  4  S   -0.000040   0.001733  -0.006168  -0.001991  -0.000769
   17  H  5  S    0.000102   0.001696  -0.006136  -0.002130  -0.000727
   18  C  6  S   -0.033722  -0.085072  -0.341678   0.920389   0.108377
   19  C  6  S   -0.006923  -0.003563  -0.012229   0.035173  -0.001742
   20  C  6  X   -0.003946  -0.000293  -0.000425  -0.000140   0.001624
   21  C  6  Y    0.000097  -0.000435  -0.000075   0.001065  -0.003609
   22  C  6  Z   -0.001641   0.000075   0.000181   0.000264  -0.001263
   23  H  7  S   -0.000089  -0.000165   0.000593   0.001096  -0.006552
   24  H  8  S    0.000155  -0.000083   0.000644   0.001000  -0.006719
   25  C  9  S    0.990288   0.036864   0.003171   0.039613   0.019373
   26  C  9  S    0.037583  -0.003756   0.001101  -0.004717  -0.000116
   27  C  9  X   -0.000443  -0.001737  -0.001528   0.003413   0.000589
   28  C  9  Y    0.000759  -0.003710  -0.000916  -0.000245  -0.000426
   29  C  9  Z   -0.000195   0.001068  -0.000388   0.001729   0.000020
   30  H 10  S    0.000410  -0.006449  -0.001160  -0.001175  -0.000257
   31  H 11  S    0.000268  -0.006619  -0.001302  -0.000996  -0.000183
   32  H 12  S    0.000259   0.000646   0.002312  -0.006281  -0.000735
   33  H 13  S    0.000349   0.000435   0.002153  -0.006284  -0.000631
   34  H 14  S   -0.006759  -0.000239  -0.000066  -0.000258  -0.000076
   35  H 15  S   -0.006709  -0.000118  -0.000129  -0.000153  -0.000304
   36  BR16  S   -0.000000   0.000000   0.000000  -0.000001  -0.000000
   37  BR16  S   -0.000000  -0.000000  -0.000001   0.000002   0.000000
   38  BR16  X   -0.000001   0.000000   0.000000  -0.000002  -0.000000
   39  BR16  Y    0.000001  -0.000000  -0.000001   0.000002  -0.000000
   40  BR16  Z   -0.000000  -0.000000  -0.000000   0.000000   0.000000
   41  BR16  S    0.000000  -0.000002  -0.000005   0.000014  -0.000000
   42  BR16  X    0.000002  -0.000000  -0.000002   0.000005   0.000001
   43  BR16  Y   -0.000004   0.000001   0.000003  -0.000009   0.000000
   44  BR16  Z    0.000001   0.000000   0.000000  -0.000001  -0.000000
   45  BR16 XX   -0.000002   0.000001   0.000003  -0.000008  -0.000000
   46  BR16 YY   -0.000001   0.000001   0.000003  -0.000008  -0.000000
   47  BR16 ZZ   -0.000001   0.000001   0.000003  -0.000008  -0.000000
   48  BR16 XY   -0.000000   0.000000   0.000000  -0.000000  -0.000000
   49  BR16 XZ   -0.000000  -0.000000  -0.000000   0.000000  -0.000000
   50  BR16 YZ   -0.000000  -0.000000  -0.000000   0.000000  -0.000000
   51  BR16  S   -0.000011  -0.000006  -0.000016   0.000047   0.000000
   52  BR16  X   -0.000025   0.000002   0.000010  -0.000033  -0.000004
   53  BR16  Y    0.000025  -0.000009  -0.000018   0.000054   0.000000
   54  BR16  Z   -0.000007  -0.000001  -0.000002   0.000004   0.000001
   55  H 17  S    0.000140  -0.000001   0.000003   0.000002   0.000006

                     11         12         13         14         15
                   -9.2098    -6.9049    -6.8916    -6.8916    -2.2901
                     A          A          A          A          A   
    1  C  1  S   -0.000001   0.000000  -0.000001   0.000001  -0.000000
    2  C  1  S    0.000003   0.000000   0.000008  -0.000005   0.000004
    3  C  1  X   -0.000000   0.000000  -0.000000   0.000000   0.000001
    4  C  1  Y   -0.000003   0.000000  -0.000008   0.000005  -0.000003
    5  C  1  Z   -0.000001   0.000001  -0.000001   0.000000   0.000001
    6  C  2  S    0.000001   0.000002   0.000003  -0.000001  -0.000000
    7  C  2  S   -0.000013  -0.000012  -0.000037   0.000018  -0.000015
    8  C  2  X   -0.000001   0.000002   0.000002   0.000000   0.000004
    9  C  2  Y    0.000007   0.000008   0.000020  -0.000008   0.000005
   10  C  2  Z   -0.000004  -0.000003  -0.000009   0.000005  -0.000001
   11  C  3  S    0.000003   0.000000   0.000004  -0.000003  -0.000000
   12  C  3  S   -0.000023  -0.000004  -0.000044   0.000033  -0.000004
   13  C  3  X   -0.000003  -0.000002  -0.000005   0.000006   0.000002
   14  C  3  Y    0.000013   0.000002   0.000023  -0.000019   0.000001
   15  C  3  Z    0.000003   0.000003   0.000008  -0.000006   0.000001
   16  H  4  S   -0.000000  -0.000000  -0.000000   0.000000  -0.000000
   17  H  5  S    0.000000  -0.000000  -0.000000   0.000000  -0.000000
   18  C  6  S   -0.000022   0.000009  -0.000035   0.000017  -0.000008
   19  C  6  S    0.000166  -0.000054   0.000333  -0.000182   0.000090
   20  C  6  X   -0.000096   0.000019  -0.000200   0.000116  -0.000045
   21  C  6  Y   -0.000054   0.000055  -0.000108   0.000026  -0.000040
   22  C  6  Z    0.000041  -0.000016   0.000087  -0.000049   0.000024
   23  H  7  S    0.000003  -0.000000   0.000007  -0.000004   0.000002
   24  H  8  S    0.000009  -0.000002   0.000019  -0.000010   0.000006
   25  C  9  S   -0.000005  -0.000001  -0.000016   0.000014  -0.000018
   26  C  9  S    0.000043   0.000015   0.000183  -0.000130   0.000251
   27  C  9  X    0.000035   0.000022   0.000125  -0.000083   0.000131
   28  C  9  Y    0.000010   0.000020  -0.000000   0.000035  -0.000086
   29  C  9  Z   -0.000010   0.000003  -0.000052   0.000037  -0.000069
   30  H 10  S    0.000002   0.000001   0.000006  -0.000003   0.000004
   31  H 11  S    0.000004   0.000001   0.000012  -0.000009   0.000012
   32  H 12  S   -0.000020  -0.000003  -0.000023   0.000043  -0.000003
   33  H 13  S   -0.000371   0.000120  -0.000790   0.000425  -0.000230
   34  H 14  S   -0.000010  -0.000009  -0.000038  -0.000004  -0.000024
   35  H 15  S   -0.000081  -0.000012  -0.000424   0.000310  -0.000738
   36  BR16  S    0.170455  -0.001953   0.000001  -0.000003  -0.000221
   37  BR16  S   -0.524716   0.006055  -0.000003   0.000008   0.000617
   38  BR16  X   -0.004247  -0.397611   0.120715  -0.041605   0.001391
   39  BR16  Y   -0.001326  -0.124777  -0.339869   0.208842   0.000440
   40  BR16  Z   -0.000286  -0.026455  -0.211293  -0.359698   0.000092
   41  BR16  S    2.305921  -0.025628   0.000017  -0.000036  -0.003771
   42  BR16  X    0.010633   1.014216  -0.308041   0.106168  -0.003481
   43  BR16  Y    0.003319   0.318277   0.867280  -0.532923  -0.001101
   44  BR16  Z    0.000717   0.067481   0.539180   0.917881  -0.000230
   45  BR16 XX   -0.549542   0.010497  -0.002050   0.000711   0.860151
   46  BR16 YY   -0.552066   0.003976   0.001798  -0.001101  -0.364901
   47  BR16 ZZ   -0.552331   0.003300   0.000238   0.000417  -0.492695
   48  BR16 XY    0.001015   0.002615   0.002958  -0.001918   0.493043
   49  BR16 XZ    0.000216   0.000559   0.001989   0.003550   0.104699
   50  BR16 YZ    0.000068   0.000175   0.000871   0.000963   0.032770
   51  BR16  S    0.030967   0.004887   0.000009  -0.000003  -0.007017
   52  BR16  X    0.002944   0.049110  -0.012919   0.004456  -0.009735
   53  BR16  Y    0.000931   0.015412   0.036373  -0.022349  -0.003048
   54  BR16  Z    0.000198   0.003269   0.022602   0.038476  -0.000652
   55  H 17  S   -0.005427  -0.012784   0.000008  -0.000011   0.027204

                     16         17         18         19         20
                   -2.2852    -2.2852    -2.2717    -2.2717    -1.0860
                     A          A          A          A          A   
    1  C  1  S    0.000000  -0.000000  -0.000000  -0.000000  -0.101703
    2  C  1  S   -0.000001   0.000000   0.000002   0.000001   0.265089
    3  C  1  X   -0.000000   0.000000  -0.000000  -0.000000   0.002825
    4  C  1  Y    0.000001  -0.000000  -0.000002  -0.000001  -0.061262
    5  C  1  Z   -0.000001   0.000000  -0.000000  -0.000000  -0.000318
    6  C  2  S   -0.000000   0.000000  -0.000000  -0.000000  -0.106915
    7  C  2  S    0.000006  -0.000002  -0.000003  -0.000001   0.278214
    8  C  2  X   -0.000001   0.000000  -0.000001  -0.000001  -0.058542
    9  C  2  Y   -0.000003   0.000001   0.000001   0.000000  -0.024329
   10  C  2  Z   -0.000000   0.000000  -0.000001  -0.000000   0.010671
   11  C  3  S    0.000000  -0.000000   0.000000   0.000000  -0.105527
   12  C  3  S   -0.000001   0.000000  -0.000006  -0.000005   0.274291
   13  C  3  X   -0.000001   0.000000  -0.000000  -0.000000   0.060308
   14  C  3  Y    0.000000  -0.000000   0.000003   0.000002  -0.018855
   15  C  3  Z   -0.000001   0.000000   0.000000   0.000000  -0.010770
   16  H  4  S   -0.000000   0.000000  -0.000000   0.000000   0.048328
   17  H  5  S    0.000000  -0.000000   0.000000  -0.000000   0.048332
   18  C  6  S   -0.000004   0.000001  -0.000013  -0.000006  -0.109726
   19  C  6  S    0.000038  -0.000010   0.000138   0.000068   0.284864
   20  C  6  X   -0.000014   0.000003  -0.000067  -0.000034   0.035003
   21  C  6  Y   -0.000028   0.000008  -0.000072  -0.000027   0.052331
   22  C  6  Z    0.000009  -0.000002   0.000034   0.000015   0.026699
   23  H  7  S    0.000000  -0.000000   0.000002   0.000001   0.046570
   24  H  8  S    0.000001  -0.000000   0.000006   0.000003   0.055293
   25  C  9  S    0.000010  -0.000004  -0.000005  -0.000004  -0.111081
   26  C  9  S   -0.000109   0.000039   0.000053   0.000039   0.288978
   27  C  9  X   -0.000056   0.000021   0.000029   0.000021  -0.037930
   28  C  9  Y    0.000049  -0.000021  -0.000017  -0.000020   0.049990
   29  C  9  Z    0.000025  -0.000010  -0.000013  -0.000011  -0.026327
   30  H 10  S   -0.000002   0.000001   0.000001   0.000001   0.047558
   31  H 11  S   -0.000005   0.000002   0.000003   0.000002   0.056300
   32  H 12  S   -0.000000  -0.000001   0.000001  -0.000012   0.056830
   33  H 13  S   -0.000096   0.000026  -0.000364  -0.000174   0.048410
   34  H 14  S    0.000009   0.000002  -0.000006   0.000006   0.057849
   35  H 15  S    0.000279  -0.000104  -0.000136  -0.000105   0.050569
   36  BR16  S    0.000000   0.000000   0.000000  -0.000000  -0.000124
   37  BR16  S   -0.000000  -0.000000  -0.000000   0.000000   0.000392
   38  BR16  X   -0.000532   0.000043  -0.000001  -0.000001   0.000035
   39  BR16  Y    0.001584  -0.000486   0.000002   0.000003   0.000118
   40  BR16  Z    0.000476   0.001668   0.000002  -0.000002   0.000002
   41  BR16  S    0.000002   0.000000   0.000001  -0.000002  -0.001845
   42  BR16  X    0.001428  -0.000116   0.000003   0.000002  -0.000104
   43  BR16  Y   -0.004253   0.001306  -0.000006  -0.000007  -0.000354
   44  BR16  Z   -0.001277  -0.004477  -0.000006   0.000005  -0.000007
   45  BR16 XX   -0.502683   0.039579  -0.080751  -0.007726   0.000410
   46  BR16 YY    0.472520  -0.145118  -0.678481  -0.401760   0.000373
   47  BR16 ZZ    0.030161   0.105538   0.759231   0.409487   0.000463
   48  BR16 XY    0.777313  -0.259566   0.277258   0.090450  -0.000009
   49  BR16 XZ    0.241447   0.915215   0.088760  -0.291919  -0.000003
   50  BR16 YZ    0.139828   0.269219  -0.468748   0.828956  -0.000001
   51  BR16  S   -0.000003  -0.000002   0.000005   0.000002   0.003194
   52  BR16  X   -0.000028  -0.000000  -0.000001  -0.000002   0.000267
   53  BR16  Y    0.000071  -0.000023   0.000008   0.000004   0.001025
   54  BR16  Z    0.000022   0.000078   0.000001  -0.000001   0.000017
   55  H 17  S    0.000002   0.000009  -0.000002   0.000003   0.000660

                     21         22         23         24         25
                   -0.9164    -0.9151    -0.8725    -0.7422    -0.7226
                     A          A          A          A          A   
    1  C  1  S   -0.076608   0.133949  -0.008793  -0.005891  -0.118486
    2  C  1  S    0.220341  -0.385558   0.025923   0.018629   0.377788
    3  C  1  X   -0.105806  -0.060885  -0.000663  -0.118136   0.000178
    4  C  1  Y   -0.005171  -0.002141   0.002101   0.001633   0.143597
    5  C  1  Z    0.013846   0.008038   0.000114   0.077454  -0.003276
    6  C  2  S    0.100552   0.111047  -0.000365   0.067714   0.096518
    7  C  2  S   -0.288546  -0.320312   0.001205  -0.214222  -0.307935
    8  C  2  X   -0.030284   0.028064  -0.001790  -0.025784  -0.135963
    9  C  2  Y    0.088624  -0.081007   0.007905  -0.104390   0.053483
   10  C  2  Z   -0.007121   0.005940  -0.000573   0.099970   0.034796
   11  C  3  S   -0.147134  -0.030260  -0.001542  -0.060187   0.102130
   12  C  3  S    0.422966   0.086098   0.004689   0.190306  -0.325568
   13  C  3  X    0.008773  -0.030183   0.001032  -0.025738   0.132263
   14  C  3  Y    0.023503  -0.119263   0.007970   0.108765   0.054697
   15  C  3  Z    0.001168  -0.010021   0.000742   0.097425  -0.043449
   16  H  4  S    0.060526  -0.109986   0.008301  -0.025203   0.186986
   17  H  5  S    0.063564  -0.108191   0.008346   0.042721   0.183463
   18  C  6  S   -0.018699  -0.142650   0.006439   0.112460  -0.046124
   19  C  6  S    0.053824   0.409881  -0.019248  -0.355847   0.147622
   20  C  6  X   -0.102461   0.008931  -0.003525   0.077836   0.091766
   21  C  6  Y    0.066858  -0.005532  -0.002299   0.045800  -0.114849
   22  C  6  Z    0.000993   0.018463  -0.000935   0.122860  -0.026716
   23  H  7  S    0.120718   0.022782   0.001921   0.075494  -0.166156
   24  H  8  S    0.113579   0.027915   0.001112   0.124168  -0.153951
   25  C  9  S    0.131404  -0.059701   0.006500  -0.113737  -0.037480
   26  C  9  S   -0.377930   0.171737  -0.019277   0.360241   0.120114
   27  C  9  X   -0.045565  -0.087825   0.003838   0.081249  -0.088893
[...]
                   Z -0.00000961  0.00000249 -0.00000579 -0.00000090  0.00000240
 17   H            X -0.00025444  0.00024827  0.00005485 -0.00030171 -0.00019272
                   Y  0.00072440 -0.00041386  0.00012807  0.00051798  0.00052646
                   Z  0.00046745 -0.00036272  0.00004282  0.00039948  0.00008990

 TRANS. SAYVETZ    X  0.00000002 -0.00000002 -0.00000014 -0.00000009 -0.00000001
                   Y -0.00000003 -0.00000016 -0.00000027  0.00000029 -0.00000006
                   Z  0.00000018 -0.00000008  0.00000029  0.00000004 -0.00000015
               TOTAL  0.00000018  0.00000018  0.00000042  0.00000031  0.00000016

   ROT. SAYVETZ    X -0.00016815 -0.00022517  0.00015801  0.00027080 -0.00021651
                   Y  0.00015352 -0.00003244  0.00028819 -0.00001448  0.00021904
                   Z -0.00008958  0.00049881  0.00018734 -0.00059080  0.00001254
               TOTAL  0.00024468  0.00054824  0.00037831  0.00065006  0.00030824

                           41          42          43          44          45
       FREQUENCY:      3130.60     3610.55     3612.66     3615.89     3617.31  
        SYMMETRY:         A           A           A           A           A   
    REDUCED MASS:      1.02053     1.06401     1.06438     1.06775     1.06806
    IR INTENSITY:      0.06400     0.06563     0.02791     0.16865     0.11679

  1   C            X  0.00000271 -0.00037253 -0.00283295 -0.00186363  0.00316273
                   Y -0.00000558 -0.01138358  0.03609014 -0.01650765 -0.03348725
                   Z -0.00000158 -0.00035004  0.00357066  0.00037015 -0.00366389
  2   C            X -0.00000619  0.02975442 -0.02075563  0.03929760 -0.01754084
                   Y -0.00000280  0.00947967 -0.00973474  0.01623689 -0.00482825
                   Z -0.00000244 -0.00864639  0.00813176 -0.01572849  0.00626966
  3   C            X -0.00000425 -0.00302147  0.03906771  0.03816066 -0.01474797
                   Y -0.00000098  0.00148548 -0.00742013 -0.00574359  0.00527730
                   Z  0.00000342  0.00198270 -0.01453091 -0.01505817  0.00848042
  4   H            X -0.00001395 -0.01451020  0.04482533 -0.02258364 -0.04126566
                   Y  0.00000070  0.07413394 -0.22860077  0.10692029  0.20587296
                   Z -0.00002653 -0.08668116  0.26949557 -0.12631125 -0.24467845
  5   H            X -0.00002235  0.00569699 -0.02067850  0.00798414  0.02048503
                   Y -0.00000698  0.05675337 -0.18543235  0.07617036  0.16933723
                   Z  0.00003257  0.09407973 -0.30838433  0.12850510  0.28347149
  6   C            X -0.00001011 -0.00574829 -0.01433515 -0.00685645 -0.02352171
                   Y -0.00000953 -0.01272693 -0.02052312 -0.00647411 -0.03678920
                   Z  0.00000602 -0.00811667 -0.01670328 -0.00673198 -0.03464643
  7   H            X -0.00002833  0.02406350 -0.31427607 -0.29681789  0.11130155
                   Y -0.00004008 -0.01015167  0.12013741  0.11372510 -0.04433679
                   Z -0.00002943  0.01809237 -0.23226818 -0.22080794  0.08296958
  8   H            X -0.00000811  0.01219711 -0.13070212 -0.12654774  0.05561772
                   Y -0.00003484  0.00482561 -0.03899319 -0.03781853  0.02021471
                   Z  0.00000262 -0.03660563  0.40057511  0.39174402 -0.16919301
  9   C            X  0.00004522 -0.03141048 -0.00644290  0.01437057  0.00835298
                   Y -0.00006828  0.04133176  0.01174917 -0.02161857 -0.00763973
                   Z -0.00003329 -0.02555686 -0.00640016  0.01581806  0.00793235
 10   H            X  0.00006365 -0.23943750  0.16562803 -0.30195995  0.13119272
                   Y -0.00005891 -0.09189978  0.06560221 -0.11848809  0.05081197
                   Z  0.00006813 -0.19974170  0.13909538 -0.25424124  0.11081932
 11   H            X  0.00001245 -0.09731486  0.07497797 -0.13810671  0.05673397
                   Y -0.00004755 -0.03541765  0.02351602 -0.04494544  0.02081058
                   Z -0.00003768  0.30344634 -0.23061423  0.42927143 -0.17971676
 12   H            X -0.00005899  0.00990705  0.01251256  0.00232899  0.02468428
                   Y -0.00000087  0.00614441  0.01495068  0.00697653  0.02514850
                   Z  0.00005274  0.16344260  0.30877272  0.11712944  0.57429700
 13   H            X -0.00019274  0.07883753  0.14202610  0.05075712  0.23531497
                   Y  0.00030745  0.13057910  0.22644545  0.07860284  0.37871404
                   Z -0.00012778 -0.06424355 -0.11285739 -0.03941436 -0.18936620
 14   H            X  0.00010038  0.03458356  0.01103887 -0.01918713 -0.00521415
                   Y  0.00006341 -0.12120297 -0.02895746  0.06232965  0.03057189
                   Z -0.00012403  0.57347698  0.14595231 -0.30330234 -0.13651727
 15   H            X -0.00015140  0.31427095  0.07760736 -0.14534788 -0.06151059
                   Y  0.00040457 -0.34949258 -0.08935711  0.16290813  0.06592039
                   Z  0.00058081 -0.28070548 -0.07099435  0.13134295  0.05392903
 16   BR           X -0.01222641 -0.00000235  0.00000150  0.00000197  0.00000446
                   Y -0.00297792  0.00000040 -0.00000461 -0.00000364 -0.00000958
                   Z -0.00118381  0.00000000  0.00000062  0.00000043  0.00000128
 17   H            X  0.95736936  0.00046407  0.00001599 -0.00023470 -0.00027856
                   Y  0.23363894  0.00008603  0.00006072  0.00001088  0.00007245
                   Z  0.09263914 -0.00010568 -0.00005489  0.00002821 -0.00003660

 TRANS. SAYVETZ    X  0.00000006 -0.00000021  0.00000007  0.00000025 -0.00000007
                   Y -0.00000001  0.00000003  0.00000002 -0.00000000  0.00000004
                   Z  0.00000007 -0.00000112 -0.00000053  0.00000012 -0.00000041
               TOTAL  0.00000010  0.00000114  0.00000054  0.00000028  0.00000042

   ROT. SAYVETZ    X  0.00003103  0.00041178  0.00027124 -0.00005878  0.00003848
                   Y -0.00011521  0.00009857  0.00001799 -0.00013188 -0.00021555
                   Z -0.00003586 -0.00005592 -0.00002470 -0.00001467 -0.00001007
               TOTAL  0.00012458  0.00042708  0.00027295  0.00014513  0.00021919

                           46          47          48          49          50
       FREQUENCY:      3624.33     3729.68     3732.16     3735.45     3737.00  
        SYMMETRY:         A           A           A           A           A   
    REDUCED MASS:      1.07248     1.11436     1.11396     1.11056     1.11033
    IR INTENSITY:      0.02173     0.00987     0.00675     0.02104     0.02089

  1   C            X  0.00270977  0.00662464  0.00281409  0.00281139  0.00622732
                   Y -0.04686277 -0.00475290 -0.00021115 -0.00234151 -0.00460541
                   Z -0.00403131  0.05419775  0.02480741  0.02432441  0.05424754
  2   C            X -0.02789495 -0.01748710  0.01052933 -0.01159931  0.01039061
                   Y -0.00935429 -0.00747159  0.00464129 -0.00470386  0.00442489
                   Z  0.01202226 -0.05392168  0.02885872 -0.03972829  0.03649118
  3   C            X  0.03165239 -0.01213303 -0.01707833  0.01677320  0.00326403
                   Y -0.00447007  0.00941437  0.01253041 -0.01322398 -0.00248501
                   Z -0.01475765 -0.03527426 -0.04445537  0.05029674  0.00756906
  4   H            X -0.05758430 -0.05072975 -0.02332731 -0.02199146 -0.05232120
                   Y  0.27968376  0.25469372  0.10774960  0.12100833  0.26033895
                   Z -0.33340450 -0.29663287 -0.12594744 -0.13829963 -0.30116267
  5   H            X  0.02726566 -0.02358582 -0.00969654 -0.01235280 -0.02281695
                   Y  0.22384812 -0.20084694 -0.10002391 -0.09003826 -0.20955542
                   Z  0.37689437 -0.33012903 -0.16289539 -0.14809658 -0.33998476
  6   C            X  0.00981299 -0.00143865 -0.01277242 -0.00228350  0.01866682
                   Y  0.01606754 -0.00302916 -0.02071280 -0.00306351  0.03081020
                   Z  0.01747128  0.00504041  0.02932458  0.00522250 -0.05053783
  7   H            X -0.22559984  0.22384479  0.29401604 -0.31801534 -0.05610566
                   Y  0.08744685 -0.08622650 -0.11196138  0.12131093  0.01940585
                   Z -0.16900779  0.16209408  0.21305773 -0.22995592 -0.03981976
  8   H            X -0.10619325 -0.08058229 -0.10055105  0.12221278  0.01678134
                   Y -0.03245779 -0.02304424 -0.03017630  0.03528234  0.00802137
                   Z  0.33092709  0.24630080  0.30507302 -0.36365343 -0.04980238
  9   C            X -0.00866202 -0.01055123  0.02042771  0.01846517  0.00034505
                   Y  0.01246902  0.00985201 -0.01821173 -0.01581359 -0.00061939
                   Z -0.01116215  0.02643848 -0.04952820 -0.04956326 -0.00316044
 10   H            X  0.19536857  0.32109984 -0.18104588  0.22627941 -0.21140396
                   Y  0.07647335  0.12574821 -0.06937045  0.08967201 -0.08179867
                   Z  0.16558056  0.26350701 -0.14788256  0.18662929 -0.17262004
 11   H            X  0.09409177 -0.11761264  0.06242210 -0.09357729  0.08763740
                   Y  0.03275955 -0.04022535  0.01872652 -0.03434957  0.02837304
                   Z -0.29686197  0.36223961 -0.18969528  0.28191853 -0.26087880
 12   H            X -0.01178278 -0.00344361 -0.00829321  0.00132181  0.01919751
                   Y -0.01091146 -0.00076154 -0.00872577 -0.00392293  0.02006216
                   Z -0.26520631 -0.04070548 -0.22117899 -0.04214977  0.41092728
 13   H            X -0.09350531  0.02347140  0.15301183  0.02456310 -0.23686255
                   Y -0.15074361  0.03580958  0.24609832  0.04166610 -0.38015414
                   Z  0.07587404 -0.01746609 -0.11847321 -0.01959744  0.18402511
 14   H            X  0.01135194 -0.01290296  0.02219759  0.02411669  0.00483084
                   Y -0.03917454  0.03854892 -0.07560869 -0.08295536 -0.00452623
                   Z  0.18929438 -0.18863214  0.35556486  0.37510962  0.02844403
 15   H            X  0.07587998  0.13692006 -0.25534814 -0.24018274 -0.01193221
                   Y -0.08440956 -0.15157890  0.28548870  0.26879743  0.01155043
                   Z -0.06859476 -0.11863050  0.22317010  0.21051866  0.00973105
 16   BR           X -0.00000148 -0.00000041  0.00000315  0.00000192 -0.00000279
                   Y  0.00000380  0.00000042 -0.00000764 -0.00000317  0.00000814
                   Z -0.00000051 -0.00000046  0.00000115  0.00000102 -0.00000012
 17   H            X  0.00011504  0.00011760 -0.00031148 -0.00027594  0.00011126
                   Y -0.00000079  0.00007143 -0.00007698 -0.00011308 -0.00009357
                   Z -0.00000662 -0.00000572  0.00000696 -0.00000887 -0.00000754

 TRANS. SAYVETZ    X  0.00000005 -0.00000003  0.00000001  0.00000003  0.00000002
                   Y  0.00000020 -0.00000001 -0.00000004 -0.00000000 -0.00000002
                   Z  0.00000049  0.00000002 -0.00000010  0.00000005  0.00000005
               TOTAL  0.00000053  0.00000004  0.00000011  0.00000006  0.00000006

   ROT. SAYVETZ    X  0.00018714 -0.00003599  0.00019532  0.00011424 -0.00007747
                   Y  0.00007327 -0.00009384  0.00005554 -0.00010312  0.00012260
                   Z  0.00001740  0.00000545  0.00003702 -0.00005565 -0.00001821
               TOTAL  0.00020173  0.00010065  0.00020641  0.00016365  0.00014616

                           51
       FREQUENCY:      3742.82  
        SYMMETRY:         A   
    REDUCED MASS:      1.10943
    IR INTENSITY:      0.25431

  1   C            X -0.00395304
                   Y  0.00267731
                   Z -0.03500176
  2   C            X -0.00895138
                   Y -0.00373147
                   Z -0.03120592
  3   C            X -0.01126859
                   Y  0.00918598
                   Z -0.03632771
  4   H            X  0.03274016
                   Y -0.16961085
                   Z  0.19491523
  5   H            X  0.01465804
                   Y  0.13661301
                   Z  0.22149087
  6   C            X  0.01623913
                   Y  0.02683059
                   Z -0.04635248
  7   H            X  0.22230455
                   Y -0.08481603
                   Z  0.16143077
  8   H            X -0.09318269
                   Y -0.02430884
                   Z  0.27213955
  9   C            X  0.01159836
                   Y -0.00996949
                   Z -0.03345036
 10   H            X  0.17794574
                   Y  0.06892326
                   Z  0.14633489
 11   H            X -0.07638237
                   Y -0.02681124
                   Z  0.22559169
 12   H            X  0.01949288
                   Y  0.02146376
                   Z  0.38853550
 13   H            X -0.20679417
                   Y -0.33258951
                   Z  0.16210344
 14   H            X  0.01993437
                   Y -0.05854201
                   Z  0.26249826
 15   H            X -0.15418821
                   Y  0.17182282
                   Z  0.13600387
 16   BR           X -0.00000138
                   Y  0.00000572
                   Z  0.00000112
 17   H            X -0.00005268
                   Y -0.00017884
                   Z -0.00006139

 TRANS. SAYVETZ    X -0.00000001
                   Y  0.00000002
                   Z  0.00000011
               TOTAL  0.00000011

   ROT. SAYVETZ    X  0.00011336
                   Y -0.00005393
                   Z  0.00010221
               TOTAL  0.00016188

 REFERENCE ON SAYVETZ CONDITIONS - A. SAYVETZ, J.CHEM.PHYS., 7, 383-389(1939).

 NOTE - THE MODES J,K ARE ORTHONORMALIZED ACCORDING TO
 SUM ON I   M(I) * (X(I,J)*X(I,K) + Y(I,J)*Y(I,K) + Z(I,J)*Z(I,K)) = DELTA(J,K)

  MODE FREQ(CM**-1)  SYMMETRY  RED. MASS  IR INTENS.
     1      19.644    A        1.786257    0.292756
     2      10.136    A        3.968623    0.006225
     3       6.745    A        5.998750    0.010881
     4       4.398    A        2.830547    0.048805
     5       0.062    A        8.805105    0.000013
     6       0.078    A        8.825550    0.000000
     7       0.423    A        8.821770    0.000000
     8       9.035    A        1.831342    0.241117
     9      22.299    A        2.036724    0.219229
    10      30.338    A        1.618298    0.002206
    11      39.291    A        6.251780    0.030274
    12      82.080    A        1.062282    0.898929
    13     256.312    A        1.612969    0.000286
    14     643.854    A        1.743160    0.040464
    15     731.134    A        2.642895    0.001371
    16     899.800    A        1.163271    0.014556
    17     961.774    A        1.503049    0.004460
    18    1010.620    A        1.840641    0.009731
    19    1051.354    A        3.629910    0.000403
    20    1093.432    A        1.950681    0.004384
    21    1096.446    A        1.994124    0.006956
    22    1163.897    A        1.211228    0.008042
    23    1194.611    A        1.212705    0.003347
    24    1250.079    A        1.419835    0.002885
    25    1280.807    A        1.611860    0.001025
    26    1444.377    A        1.355456    0.004244
    27    1447.157    A        1.461467    0.017357
    28    1470.568    A        1.462882    0.007767
    29    1494.273    A        1.320166    0.013760
    30    1520.173    A        1.106609    0.017603
    31    1577.133    A        1.343246    0.000462
    32    1611.928    A        1.587837    0.003020
    33    1648.212    A        1.585932    0.000526
    34    1660.107    A        1.584111    0.122229
    35    1661.388    A        1.580285    0.113697
    36    1821.628    A        1.090572    0.005759
    37    1822.744    A        1.088043    0.000739
    38    1836.522    A        1.124785    0.001265
    39    1837.490    A        1.126398    0.005104
    40    1855.685    A        1.125863    0.000584
    41    3130.596    A        1.020527    0.063996
    42    3610.550    A        1.064012    0.065628
    43    3612.662    A        1.064378    0.027905
    44    3615.887    A        1.067751    0.168646
    45    3617.314    A        1.068059    0.116786
    46    3624.331    A        1.072479    0.021727
    47    3729.677    A        1.114359    0.009868
    48    3732.164    A        1.113959    0.006748
    49    3735.449    A        1.110556    0.021037
    50    3737.000    A        1.110326    0.020890
    51    3742.818    A        1.109432    0.254310

     -------------------------------
     THERMOCHEMISTRY AT T=  298.15 K
     -------------------------------

 USING IDEAL GAS, RIGID ROTOR, HARMONIC NORMAL MODE APPROXIMATIONS.
 P=  1.01325E+05 PASCAL.
 ALL FREQUENCIES ARE SCALED BY   1.00000
 THE MOMENTS OF INERTIA ARE (IN AMU*BOHR**2)
            287.84836          3535.45777          3748.41989
 THE ROTATIONAL SYMMETRY NUMBER IS  1.0
 THE ROTATIONAL CONSTANTS ARE (IN GHZ)
      6.26402     0.51000     0.48103
   2 IMAGINARY FREQUENCY VIBRATION(S) IS(ARE) EXCLUDED
     FROM THE FOLLOWING THERMOCHEMICAL ANALYSIS.
      9 -     51 VIBRATIONAL MODES ARE USED IN THERMOCHEMISTRY.
 THE HARMONIC ZERO POINT ENERGY IS (SCALED BY   1.000)
        0.176344 HARTREE/MOLECULE    38702.980275 CM**-1/MOLECULE 
      110.657485 KCAL/MOL              462.990915 KJ/MOL

               Q               LN Q
 ELEC.     1.00000E+00       0.000000
 TRANS.    7.22120E+07      18.095117
 ROT.      6.99150E+05      13.457620
 VIB.      2.06593E+03       7.633334
 TOT.      1.04302E+17      39.186071

              E         H         G         CV        CP        S
           KJ/MOL    KJ/MOL    KJ/MOL   J/MOL-K   J/MOL-K   J/MOL-K
 ELEC.      0.000     0.000     0.000     0.000     0.000     0.000
 TRANS.     3.718     6.197   -44.857    12.472    20.786   171.236
 ROT.       3.718     3.718   -33.361    12.472    12.472   124.364
 VIB.     474.640   474.640   444.068    63.106    63.106   102.538
 TOTAL    482.077   484.556   365.851    88.049    96.364   398.138
 VIB. THERMAL CORRECTION E(T)-E(0) = H(T)-H(0) =     11649.081 J/MOL

              E         H         G         CV        CP        S
         KCAL/MOL  KCAL/MOL  KCAL/MOL CAL/MOL-K CAL/MOL-K CAL/MOL-K
 ELEC.      0.000     0.000     0.000     0.000     0.000     0.000
 TRANS.     0.889     1.481   -10.721     2.981     4.968    40.926
 ROT.       0.889     0.889    -7.973     2.981     2.981    29.724
 VIB.     113.442   113.442   106.135    15.083    15.083    24.507
 TOTAL    115.219   115.812    87.440    21.044    23.031    95.157
 VIB. THERMAL CORRECTION E(T)-E(0) = H(T)-H(0) =      2784.197 CAL/MOL

     *******************************************************
     * THIS IS NOT A STATIONARY POINT ON THE MOLECULAR PES *
     *     THE VIBRATIONAL ANALYSIS IS NOT VALID !!!       *
     *******************************************************
 ......END OF NORMAL COORDINATE ANALYSIS......
 STEP CPU TIME =     0.01 TOTAL CPU TIME =         53.3 (      0.9 MIN)
 TOTAL WALL CLOCK TIME=         53.7 SECONDS, CPU UTILIZATION IS    99.35%
               995759  WORDS OF DYNAMIC MEMORY USED
 EXECUTION OF GAMESS TERMINATED NORMALLY Sat Nov 13 16:39:33 2021
 DDI: 263640 bytes (0.3 MB / 0 MWords) used by master data server.

 ----------------------------------------
 CPU timing information for all processes
 ========================================
 0: 52.264 + 1.59 = 53.324
 ----------------------------------------
 ddikick.x: exited gracefully.
----- accounting info -----
Files used on the master node chemcompute-node-0.novalocal were:
-rw-r--r--. 1 chemcomp chemcomp     1210 Nov 13 16:38 /scratch/306031/341933.F05
-rw-rw-r--. 1 chemcomp chemcomp  6300560 Nov 13 16:39 /scratch/306031/341933.F08
-rw-rw-r--. 1 chemcomp chemcomp 85196800 Nov 13 16:39 /scratch/306031/341933.F10
-rw-rw-r--. 1 chemcomp chemcomp   628728 Nov 13 16:39 /scratch/306031/341933.F18
Sat Nov 13 16:39:36 UTC 2021
0.188u 0.128s 0:57.74 0.5%	0+0k 8+216io 0pf+0w
Finishing Up...
Looking for IR data...
Looking for Raman data...
vibramans not found
Looking for thermodynamics data...
Looking for UV-Vis data...
306031
